96
Lattice="10.142707 0.0 0.0 0.0 10.142712 0.0 0.0 0.0 10.142712" Properties=species:S:1:pos:R:3:Z:I:1:forces:R:3 energy=-3290137.53654 pbc="T T T"
Zr       0.00000000       0.00000000       0.00000000       40       0.05461580      -0.06138378      -0.11437400 
Zr       5.07135345       0.00000000       0.00000000       40      -0.06940534      -0.09449738      -0.12444806 
Zr       0.00000000       5.07135606       0.00000000       40       0.05630358       0.11851020       0.01386323 
Zr       5.07135345       5.07135606       0.00000000       40      -0.04492406      -0.04360181      -0.04660423 
Zr       0.00000000       0.00000000       5.07135606       40      -0.07422440      -0.10438306       0.07276595 
Zr       5.07135345       0.00000000       5.07135606       40       0.00930128       0.05754605      -0.03726019 
Zr       0.00000000       5.07135606       5.07135606       40      -0.04420439       0.08652343      -0.03917216 
Zr       5.07135345       5.07135606       5.07135606       40       0.15037215      -0.08175533       0.11005217 
Zr       0.00000000       2.53567803       2.53567803       40      -0.01439532       0.00483171      -0.07985078 
Zr       5.07135345       2.53567803       2.53567803       40      -0.04011317       0.06736513       0.04048803 
Zr       0.00000000       7.60703409       2.53567803       40       0.03119679      -0.01181211       0.01296483 
Zr       5.07135345       7.60703409       2.53567803       40      -0.05477637       0.19548050      -0.03145521 
Zr       0.00000000       2.53567803       7.60703409       40      -0.01416582      -0.06798174       0.04007321 
Zr       5.07135345       2.53567803       7.60703409       40       0.05308994      -0.01827496       0.01198628 
Zr       0.00000000       7.60703409       7.60703409       40      -0.01526431       0.01408029       0.11318859 
Zr       5.07135345       7.60703409       7.60703409       40      -0.00101062       0.02718254       0.09013619 
Zr       2.53567673       0.00000000       2.53567803       40       0.11877256      -0.13106682      -0.08176526 
Zr       7.60703018       0.00000000       2.53567803       40      -0.03014458       0.00978325       0.05509203 
Zr       2.53567673       5.07135606       2.53567803       40       0.06319836      -0.06095895      -0.13936182 
Zr       7.60703018       5.07135606       2.53567803       40       0.04467232       0.00230968       0.08401526 
Zr       2.53567673       0.00000000       7.60703409       40       0.13323499      -0.05969134       0.11782113 
Zr       7.60703018       0.00000000       7.60703409       40      -0.05631484      -0.01095502       0.01868852 
Zr       2.53567673       5.07135606       7.60703409       40       0.14327856       0.01251482       0.06245197 
Zr       7.60703018       5.07135606       7.60703409       40      -0.14412812       0.01133211       0.01231056 
Zr       2.53567673       2.53567803       0.00000000       40       0.08795687       0.05542064      -0.02324699 
Zr       7.60703018       2.53567803       0.00000000       40      -0.12727150       0.00457152      -0.09875642 
Zr       2.53567673       7.60703409       0.00000000       40       0.04183956       0.08806406      -0.06758910 
Zr       7.60703018       7.60703409       0.00000000       40       0.02540169      -0.02440231      -0.13464394 
Zr       2.53567673       2.53567803       5.07135606       40       0.22861449      -0.03598285       0.01756390 
Zr       7.60703018       2.53567803       5.07135606       40      -0.17668146      -0.04443205       0.05974139 
Zr       2.53567673       7.60703409       5.07135606       40       0.06074982       0.07659689      -0.02916156 
Zr       7.60703018       7.60703409       5.07135606       40       0.02312866       0.03963216       0.05524387 
O       1.26783836       1.26783901       1.26783901        8       0.18931745       0.00874639       0.08609000 
O       6.33919181       1.26783901       1.26783901        8       0.19050121      -0.06161241       0.05642686 
O       1.26783836       6.33919507       1.26783901        8       0.01614831       0.09914247       0.11940560 
O       6.33919181       6.33919507       1.26783901        8      -0.11621672       0.03401518      -0.06812782 
O       1.26783836       1.26783901       6.33919507        8      -0.09222590       0.03953954      -0.07121872 
O       6.33919181       1.26783901       6.33919507        8       0.07127767      -0.07804735       0.02308237 
O       1.26783836       6.33919507       6.33919507        8       0.13038506      -0.03770818      -0.19602464 
O       6.33919181       6.33919507       6.33919507        8      -0.09116033      -0.00841233       0.04546032 
O       1.26783836       1.26783901       3.80351704        8      -0.10937845       0.33183058       0.09699063 
O       6.33919181       1.26783901       3.80351704        8       0.10362659      -0.01031966       0.05483882 
O       1.26783836       6.33919507       3.80351704        8       0.15795426      -0.00440662       0.03630451 
O       6.33919181       6.33919507       3.80351704        8       0.09309773      -0.13262727      -0.04122435 
O       1.26783836       1.26783901       8.87487310        8      -0.20525002       0.09429886      -0.07130799 
O       6.33919181       1.26783901       8.87487310        8       0.05190254       0.13075927      -0.10227830 
O       1.26783836       6.33919507       8.87487310        8      -0.16052213      -0.01612268       0.08304823 
O       6.33919181       6.33919507       8.87487310        8      -0.09532563      -0.07673912      -0.03104963 
O       1.26783836       3.80351704       1.26783901        8       0.02570037      -0.13646883      -0.11049419 
O       6.33919181       3.80351704       1.26783901        8      -0.03632077      -0.00553504       0.16330916 
O       1.26783836       8.87487310       1.26783901        8      -0.14078048       0.06248919       0.09413326 
O       6.33919181       8.87487310       1.26783901        8       0.06108211       0.05107291       0.06249624 
O       1.26783836       3.80351704       6.33919507        8      -0.14566470       0.06433740      -0.16862561 
O       6.33919181       3.80351704       6.33919507        8       0.04485664       0.06033604       0.02194962 
O       1.26783836       8.87487310       6.33919507        8       0.06205026      -0.00056997      -0.34725478 
O       6.33919181       8.87487310       6.33919507        8       0.01871952      -0.07286192      -0.17247090 
O       1.26783836       3.80351704       3.80351704        8      -0.14448451      -0.17447525       0.19080679 
O       6.33919181       3.80351704       3.80351704        8      -0.02805370       0.18779985      -0.16835050 
O       1.26783836       8.87487310       3.80351704        8      -0.13903843      -0.08677516       0.07729674 
O       6.33919181       8.87487310       3.80351704        8      -0.03213868      -0.06921497       0.01252300 
O       1.26783836       3.80351704       8.87487310        8      -0.11243749      -0.00651623       0.22273803 
O       6.33919181       3.80351704       8.87487310        8      -0.02062562      -0.00396011      -0.08885187 
O       1.26783836       8.87487310       8.87487310        8      -0.05669592      -0.06725055       0.15843866 
O       6.33919181       8.87487310       8.87487310        8       0.05581104       0.03562308       0.11254957 
O       3.80351509       1.26783901       1.26783901        8      -0.25140105       0.16719505       0.04976550 
O       8.87486854       1.26783901       1.26783901        8      -0.02602217      -0.17496924       0.24047385 
O       3.80351509       6.33919507       1.26783901        8      -0.03037932       0.12735779       0.09137691 
O       8.87486854       6.33919507       1.26783901        8       0.08459357      -0.17292358      -0.05733984 
O       3.80351509       1.26783901       6.33919507        8      -0.16943241       0.05915146       0.03634161 
O       8.87486854       1.26783901       6.33919507        8       0.16346706      -0.11990050      -0.06185295 
O       3.80351509       6.33919507       6.33919507        8      -0.06516124      -0.06444598      -0.02330215 
O       8.87486854       6.33919507       6.33919507        8       0.00173239      -0.11280792      -0.08539990 
O       3.80351509       1.26783901       3.80351704        8      -0.00308802       0.09125323      -0.00032663 
O       8.87486854       1.26783901       3.80351704        8       0.05330134       0.10578694      -0.10193808 
O       3.80351509       6.33919507       3.80351704        8      -0.28271261       0.06572613       0.02462777 
O       8.87486854       6.33919507       3.80351704        8      -0.12914679       0.05048825       0.10108556 
O       3.80351509       1.26783901       8.87487310        8       0.02289710       0.08566035      -0.07308297 
O       8.87486854       1.26783901       8.87487310        8       0.13958369      -0.01962596      -0.03198090 
O       3.80351509       6.33919507       8.87487310        8       0.16190392      -0.01976536      -0.12409062 
O       8.87486854       6.33919507       8.87487310        8       0.10131326       0.01228533       0.04170048 
O       3.80351509       3.80351704       1.26783901        8      -0.00448746      -0.16930711       0.06081115 
O       8.87486854       3.80351704       1.26783901        8      -0.01284071       0.06534843       0.12309349 
O       3.80351509       8.87487310       1.26783901        8       0.13064193      -0.15031907       0.04846168 
O       8.87486854       8.87487310       1.26783901        8      -0.08265426       0.24686563       0.14753092 
O       3.80351509       3.80351704       6.33919507        8      -0.05579248      -0.14656462      -0.03433855 
O       8.87486854       3.80351704       6.33919507        8       0.09917372       0.11995440       0.08862186 
O       3.80351509       8.87487310       6.33919507        8       0.04470934       0.11645786       0.05517459 
O       8.87486854       8.87487310       6.33919507        8      -0.13511281       0.04837277      -0.10158237 
O       3.80351509       3.80351704       3.80351704        8      -0.02267519       0.00079656       0.04576680 
O       8.87486854       3.80351704       3.80351704        8       0.08873497      -0.10213829      -0.17655164 
O       3.80351509       8.87487310       3.80351704        8       0.04919085      -0.14864463       0.00185396 
O       8.87486854       8.87487310       3.80351704        8       0.08847112      -0.04699923      -0.20769620 
O       3.80351509       3.80351704       8.87487310        8       0.02803136      -0.05416881      -0.07823194 
O       8.87486854       3.80351704       8.87487310        8       0.10622422      -0.08038671      -0.05988623 
O       3.80351509       8.87487310       8.87487310        8       0.10233930      -0.02256171      -0.06443129 
O       8.87486854       8.87487310       8.87487310        8      -0.16021698       0.07189599       0.10397964 
96
Lattice="10.142707 0.0 0.0 0.0 10.142712 0.0 0.0 0.0 10.142712" Properties=species:S:1:pos:R:3:Z:I:1:forces:R:3 energy=-3290135.80042 pbc="T T T"
Zr       8.99420530      10.11285345       0.92657935       40       0.72175465       1.60805740      -0.67525354 
Zr       3.84844097       0.10225389       0.85269350       40       0.61454317       0.39351161       0.52337336 
Zr       9.04113871       5.19531633       0.89743355       40      -0.69679423      -0.55971633      -1.05616366 
Zr       3.91253061       5.11811846       0.84742220       40       0.18238093      -0.63111338      -0.22957358 
Zr       8.99191643       0.07031914       5.88455830       40       0.34274229      -0.64089492      -0.06164719 
Zr       3.97387177       0.06622204       6.00095680       40      -0.27502281      -0.64512287      -1.44491599 
Zr       9.09843233       5.10861519       5.95187071       40      -1.03783558      -0.14160072       0.04932025 
Zr       3.88453228       5.15767497       5.91189703       40       0.43157602      -0.24335337       0.59140496 
Zr       9.05045687       2.61304946       3.42648558       40      -0.77910713      -0.04027028      -0.38599386 
Zr       3.90896765       2.59019423       3.42593537       40      -0.01576603      -0.10035006      -0.37226520 
Zr       9.02198893       7.63348725       3.35757867       40       0.47743749      -0.27449663       1.52448353 
Zr       3.92099514       7.61258322       3.46779891       40       1.02158373      -0.11493691       0.19998635 
Zr       8.98819726       2.54832848       8.50038423       40       0.18006749       0.77787281       0.39539829 
Zr       3.99763453       2.58003429       8.51618656       40      -0.62564826       1.43255264      -0.05669927 
Zr       8.97542365       7.67541120       8.56566089       40      -0.05157311      -0.04413861      -0.82739078 
Zr       3.96829076       7.64569537       8.54102681       40      -0.71536555      -0.36686338      -1.02482507 
Zr       1.41906426      10.11030450       3.43829226       40       0.12733942       0.77484538       0.07309700 
Zr       6.44863155       0.06460098       3.42790435       40      -0.20393729      -0.24602472      -0.13983222 
Zr       1.39545597       5.10564121       3.29838846       40       0.38777911       0.36743938       1.99560332 
Zr       6.43078396       5.10017233       3.33685560       40      -0.22717592      -0.08100409       0.92261959 
Zr       1.40516328       0.08400382       8.33925089       40      -0.43688916      -0.43591142       1.00182757 
Zr       6.46121892       0.04690998       8.45720893       40       0.41093327      -0.34314444       0.35920337 
Zr       1.28909115       5.17946805       8.47657253       40       0.49185684      -1.21226919       0.23721680 
Zr       6.44573606       5.19279943       8.48822521       40       0.22551282      -0.59779883       0.44815929 
Zr       1.42753115       2.59854869       0.80744607       40      -0.77922673      -0.21119977       0.20771618 
Zr       6.58789130       2.57530867       0.87488017       40      -1.04128456       0.03037808       0.16319660 
Zr       1.37082820       7.75637779       0.82391397       40       0.23001755      -0.30514451      -0.57724642 
Zr       6.36945049       7.76919405       0.90723830       40       1.22358667      -0.64899046      -0.42775418 
Zr       1.45701050       2.60506229       5.99944268       40      -0.07760553       0.23712391      -1.15073016 
Zr       6.45058487       2.62466491       6.01873606       40       0.65517279       0.86614031      -1.00280993 
Zr       1.41507013       7.62330079       5.99047556       40      -0.55454797       0.22649086      -0.20778225 
Zr       6.59049753       7.67939851       5.92339307       40      -1.77831536      -1.53437903       0.23202694 
O       0.14614908       1.35979354       1.89661213        8      -0.44110794       0.20302472       0.09949957 
O       5.26745045       1.27528111       1.92597858        8      -0.40064241      -0.00645059      -0.77172708 
O       0.12523920       6.51742149       1.90078128        8       0.65840914      -0.34956952       0.32904702 
O       5.29122967       6.38104360       1.89483117        8      -0.82387486      -0.61859442       0.80362781 
O       0.23923977       1.27336212       6.94951412        8      -0.33187294       0.26504032       0.20915173 
O       5.26652818       1.29770619       7.01202386        8       0.25747437       0.22020796       0.08524070 
O       0.11390633       6.40741825       7.07905330        8       0.26248333       0.44262157      -0.33203178 
O       5.14150632       6.36613574       7.06742903        8       0.59373622       0.93461329       0.09587774 
O      10.09829610       1.18156249       4.34029268        8       0.40743253       0.08565853       0.61155131 
O       5.08880074       1.21279854       4.40441678        8      -0.26813016       0.23565717       1.12469444 
O       0.19169803       6.33018260       4.51876161        8       0.00347034      -0.00125998      -0.87524422 
O       5.23053826       6.36751104       4.58209042        8      -0.16345991      -0.35442605      -1.40117057 
O       0.06798708       1.20865037       9.53389759        8       0.43761068       0.51215744      -0.71627010 
O       5.21202816       1.31095502       9.47436569        8       0.15153875      -0.43607431       0.71225925 
O       0.00949119       6.31783712       9.54843857        8       0.80590025       0.51917157       0.51405256 
O       5.16764715       6.40031393       9.61336822        8       0.06329318      -0.12748702      -0.14160931 
O       0.19564677       3.94483397       2.24463608        8      -0.62225664      -0.57646085       0.19939543 
O       5.22715303       3.82181591       2.34174462        8      -0.32546208       0.17340970       0.34048930 
O       0.08179194       8.96625390       2.32042620        8       0.32352781      -0.20790492      -0.18877175 
O       5.13063803       8.89875217       2.36246303        8       0.34604979       0.28318863      -0.50850889 
O       0.06953007       3.92323380       7.37697869        8       0.55466608      -0.95105917       0.25281388 
O       5.25056004       3.85471921       7.46852681        8      -0.70460000      -0.62482757      -0.21553489 
O       0.06074854       8.90346138       7.39240478        8       0.43978799       0.67901004      -0.14480951 
O       5.05889424       8.98068416       7.45678980        8       0.78214321       0.25750386      -0.43658419 
O       0.10725261       3.84233326       4.89229287        8       0.43998416      -1.32161136      -1.09453778 
O       5.14280871       3.77967980       4.90067055        8      -0.00571467      -0.03603128       0.02829369 
O       0.25219091       8.89551957       4.85666530        8       0.15892131       0.04351151       0.07224685 
O       5.36659801       8.90614124       4.88078595        8      -0.42604786       0.46107553       0.27590072 
O       0.18543435       3.87698287       9.85523598        8      -0.90470917      -0.64799097       1.20626110 
O       5.20195494       3.80274203      10.00985411        8      -0.40500905       0.49153933      -0.28117635 
O       0.10662619       8.87476454       9.86449135        8       0.77998386      -0.06324798       0.89689535 
O       5.19142393       8.95855624       9.89487359        8      -0.00016782      -0.00959388       0.67159117 
O       2.64255825       1.29044855       2.34190361        8       0.72639440      -0.28760935      -0.29302997 
O       7.74304244       1.24620924       2.38395844        8       0.79477571       0.98548581      -0.23186689 
O       2.77040333       6.29414951       2.33813455        8      -0.10073904       0.28908671      -0.59363925 
O       7.79651157       6.30509888       2.44827209        8       0.26740059       0.51786452      -0.07844364 
O       2.80691844       1.29853114       7.37752786        8      -0.47517415      -0.06517380       0.13396211 
O       7.83021831       1.25699971       7.43904642        8      -0.07245655      -0.33553934      -0.58625441 
O       2.61828867       6.27416891       7.37421824        8       0.93882475       1.19168423      -0.30963083 
O       7.74743220       6.39439507       7.57848486        8      -0.29738010      -0.47229560      -1.16598158 
O       2.46662520       1.20169484       4.84610196        8       0.74678292       0.77473827       0.63527063 
O       7.73699021       1.40492780       4.87961821        8      -0.80431464       0.24737072       0.37297543 
O       2.66882930       6.48149642       4.86149918        8       0.59451555      -0.68984313       0.00131455 
O       7.91142608       6.50522399       5.05322872        8      -0.36184473       0.50509675      -1.09945634 
O       2.64683538       1.37714918       9.89578921        8       0.33482325      -0.58410158      -0.00421680 
O       7.75824848       1.32284920       9.95838687        8      -0.18869747       0.09921713      -0.12113045 
O       2.63764317       6.42022911       9.87488460        8      -0.33375126       0.14397093       1.13051198 
O       7.74257734       6.45784889      10.01664804        8      -0.78524720       0.06543462       0.76443158 
O       2.74091649       3.72350137       1.93112832        8      -0.17396249       1.10834830      -0.09055461 
O       7.78739528       3.88800881       1.89724467        8       0.04862521      -0.86850031       0.38288660 
O       2.59874644       8.94676552       1.90579391        8       0.27457173      -0.56320929       0.57793761 
O       7.77794414       8.88943964       1.96859355        8      -1.33197499      -0.82546944      -0.06873328 
O       2.74011023       3.74453017       6.97572994        8       0.37521361       0.70709398       0.77031268 
O       7.73092410       3.80379361       7.02296423        8       0.41049942       0.26253567      -0.08312406 
O       2.65288331       8.99345918       7.01317286        8      -0.77446898      -1.21845131       0.12376082 
O       7.69152169       8.84010385       7.01292425        8       0.82403237       1.83299629       0.76178117 
O       2.65541032       3.91069287       4.53686493        8      -0.24103299      -0.26344360      -1.12484376 
O       7.69923637       4.03326300       4.46412242        8       0.78182239      -1.14620312      -0.03184587 
O       2.83985494       8.90741832       4.54425161        8      -0.48019661       0.58144686      -0.71212699 
O       7.94458283       9.01657411       4.42522108        8      -0.86374408       0.39619914       0.68078419 
O       2.60457370       3.81351114       9.54214258        8       1.07620648       0.82270553      -0.46598213 
O       7.71997070       3.86910571       9.52939058        8       0.45734509      -0.33500470       0.14851417 
O       2.69944435       9.01650542       9.54269437        8      -0.17342693      -0.34016046       0.06431191 
O       7.79782030       8.95381886       9.60139248        8      -1.26496776       0.69323980      -0.19255788 
96
Lattice="10.142707 0.0 0.0 0.0 10.142712 0.0 0.0 0.0 10.142712" Properties=species:S:1:pos:R:3:Z:I:1:forces:R:3 energy=-3290135.88183 pbc="T T T"
Zr       9.51226275       0.04174711       0.41955422       40      -0.08935230      -1.08309271      -0.08568798 
Zr       4.40321313      10.08846458       0.40455317       40       0.42089087       1.17746596      -0.01438432 
Zr       9.55686780       5.15232790       0.42123368       40      -1.44175151       0.44666689       1.09350048 
Zr       4.39110369       5.19224858       0.51793523       40       0.07201753      -1.77843498      -0.67302470 
Zr       9.62552028      10.14251142       5.54542188       40       0.01310030      -0.07644291      -0.24333341 
Zr       4.48232058       0.06430495       5.54659364       40      -1.05326953      -0.60741595      -0.17385082 
Zr       9.50380308       5.15430528       5.60582328       40       0.01980308      -0.47906464      -0.71973942 
Zr       4.45372552       5.06071172       5.55920360       40       0.77780008      -1.03293270       0.83078585 
Zr       9.51137115       2.58933695       3.02082519       40       0.05279482      -0.07388429       0.45330144 
Zr       4.45786803       2.49255390       3.07699678       40      -0.46967389       1.21847853      -0.06140576 
Zr       9.52230060       7.52723401       3.01592135       40       0.16598102       0.28516709      -0.21116094 
Zr       4.45788747       7.68611990       3.13469168       40      -0.24558767      -0.05476793      -0.58332718 
Zr       9.49618185       2.59835422       8.09269494       40       0.04734013      -0.12671191      -0.37413027 
Zr       4.46033813       2.67764596       8.12564472       40      -0.49795800      -0.16945923      -0.32667231 
Zr       9.49259590       7.63586067       8.04814954       40       0.40717941       0.55437064       0.12505563 
Zr       4.50545490       7.64225815       8.08727373       40      -0.60386104       0.01254402      -0.90885420 
Zr       1.85467199       0.00187753       3.01840891       40       0.00622808       0.02269080      -0.04780843 
Zr       7.00475698      10.13841470       2.87071378       40       0.23742856      -0.29297282       1.40389497 
Zr       1.95532688       5.10246897       3.02260487       40      -0.37449256      -0.07690415      -0.07936848 
Zr       6.94831774       5.05276241       2.97734483       40       1.63332745      -0.40840016       1.39315606 
Zr       1.93463840       0.06191634       8.08135797       40       0.25352426       0.43529871       0.02995891 
Zr       7.02341195       0.06483774       8.02219444       40      -0.31322913      -0.57043317       0.16571829 
Zr       1.80711625       5.10474081       8.15344923       40       1.82756524       0.04052371      -0.36883579 
Zr       6.99360015       5.18206767       7.95577395       40       0.01614091      -0.76929815       1.05343666 
Zr       1.88749293       2.54659965       0.54948165       40       0.46581677       0.25907873       0.07585187 
Zr       6.99009933       2.59099440       0.50144182       40      -0.29151634       0.69507592      -0.46218476 
Zr       1.92290458       7.67072274       0.56438713       40      -0.59443391      -0.39519168      -0.68941073 
Zr       6.84554048       7.58692883       0.57146968       40       1.64794926       0.02069265      -1.66542486 
Zr       1.86378223       2.69933450       5.55247610       40       0.96557778      -1.54016107      -0.08030200 
Zr       7.02016820       2.39505034       5.48238097       40       0.55432160       1.75125965       0.03176364 
Zr       2.02340562       7.63884948       5.61532220       40      -1.13884152      -0.59931207      -0.24619756 
Zr       7.04594112       7.64406128       5.41367802       40       0.09094103       0.16121816       0.70425060 
O       0.51141537       1.18665414       1.56701176        8       1.15932395       1.18672203       0.23273745 
O       5.80365361       1.22768883       1.41493633        8      -1.46562460      -0.35263868       0.21611867 
O       0.66133476       6.26627368       1.64996256        8      -0.33452021       0.42559448      -1.43637301 
O       5.68515295       6.32942780       1.57094491        8      -0.15206469       0.06712190       0.08437883 
O       0.63428862       1.29744873       6.63860971        8      -0.01115650      -0.22631916       0.11095804 
O       5.70248991       1.21642857       6.50902648        8       0.70857609       0.33283064       1.05514169 
O       0.67150771       6.30480891       6.58180673        8       0.05837925       0.26058412       0.71519941 
O       5.81257045       6.30355488       6.54484724        8      -0.55217969       0.42300759      -0.24996532 
O       0.82917294       1.37590917       4.05440055        8      -0.89449981       0.49663684       0.29471134 
O       5.79158170       1.26912335       3.99479463        8       0.80981475      -0.45710169       0.23583047 
O       0.71929173       6.40860175       4.11482108        8       0.45587837       0.25598856       0.01010743 
O       5.81673148       6.39267967       3.98127533        8      -0.05458725       0.16160394       1.03175884 
O       0.71704936       1.43715461       9.17893899        8      -0.63512656      -0.42442588      -0.18192125 
O       5.63786924       1.24930316       9.04291101        8       0.72477225      -0.42883231       0.04743907 
O       0.63258034       6.46050036       9.11973461        8      -0.18864545      -0.27448988       0.82703366 
O       5.63663201       6.32315014       9.11565548        8       0.88014310      -0.05150992       0.51249508 
O       0.73741514       3.74458132       1.96250062        8       0.00659168      -0.10362342       0.75697779 
O       5.87986376       3.74871847       2.06014015        8      -1.08769907      -1.03540893      -1.13355905 
O       0.57059066       8.86628261       1.97986799        8       0.90558189      -0.09621891      -0.12285126 
O       5.68962612       8.87965359       1.91577052        8      -0.30191037      -0.58474793      -0.25209014 
O       0.74669572       3.77132693       7.04642779        8      -1.05901030      -0.16146754       0.44320262 
O       5.75902797       3.87722126       7.03836287        8      -0.59015409      -1.05027343       0.20978994 
O       0.75286034       8.83093124       7.06210015        8      -0.52986712       0.08250883      -0.15416601 
O       5.85197502       8.77337453       6.96348104        8      -0.46261376       0.45808500       0.41311688 
O       0.57630234       3.89832119       4.54119369        8       0.10240361      -0.32115388      -1.01113011 
O       5.64096504       3.74747399       4.55418480        8      -0.36160395       0.36518174      -0.38309388 
O       0.75472947       8.95697388       4.49822524        8      -0.25600249      -0.14063668       0.09805292 
O       5.78976279       8.91687427       4.43964533        8      -0.94024762       0.25175822      -0.11267253 
O       0.61663799       3.91627813       9.63606142        8       0.29730090      -0.49592905      -1.07360477 
O       5.58905606       3.82867521       9.58581762        8       0.85073092      -0.23921373       0.79076201 
O       0.68281969       8.94668660       9.60158897        8      -0.07696196       0.64058477      -0.22574010 
O       5.61919743       8.81302449       9.52378878        8       0.99239568       0.18990803       0.36183229 
O       3.11400142       1.42924902       2.05116468        8      -0.38468447      -0.62262248      -0.86973223 
O       8.15775829       1.35337413       1.99139310        8       0.99671826       0.50663607      -0.71239107 