19
Lattice="21.0 0.0 0.0 0.0 21.0 0.0 0.0 0.0 21.0" Properties=species:S:1:pos:R:3:force:R:3:momenta:R:3:forces:R:3 energy=-14.491773483223056 pbc="F F F"
Ni       8.86954782       8.41457359      10.40890710      -0.01982600      -0.06520100      -0.01028300      -0.99951804       0.53963528       0.16539222       0.62775296       0.37262606       0.02526393 
Ni       8.70076606      10.73498813      10.86120302      -0.01482600       0.11454800       0.02023000       0.70373951       1.23895074      -1.10022372      -0.22504404      -0.23693100      -0.23916445 
Ni       8.21568107      12.95579642      11.41120181       0.10724900      -0.09382900       0.01392000      -0.82136264      -0.79505680      -0.05133250       0.39015027      -0.45910093      -0.18038069 
Ni      11.46983923       8.63965356      10.47894267       0.04798900      -0.02715200       0.00162400      -0.44408366       0.39057608      -1.17012749      -0.67773175       0.21777311      -0.36253802 
Ni      11.10103882      10.97013840      11.06665815      -0.07340800      -0.00248000       0.01643400       0.58792558      -1.17864899      -1.50834340       0.04751913      -0.11538049      -0.78161578 
Ni      10.48190231      13.26158125      11.59421154      -0.13222700      -0.07598300       0.05288400       0.52812073       0.27028179       1.25730606       1.03109434       0.65493225      -0.17172473 
Ni      13.72714130       9.23143486      10.49710857      -0.02870800      -0.01329000      -0.03093500       0.80508824       0.56460435      -1.41425601       0.07039703      -0.81740997       0.06382071 
Ni      13.42063766      11.31530202      11.20173104       0.07943400       0.02248300      -0.06184000       1.44713549      -1.54612724       0.74270452       0.04509669       0.16018187      -0.04854568 
Ni      12.88626145      13.50204768      11.61992332       0.06670400       0.02338900       0.01244600      -0.01094095       2.27619005       1.82461268       0.11767888       0.76334866       0.34349563 
Ni      10.02357841       9.23938280      12.28814495       0.07846900       0.11782600       0.04173100       0.54634610      -0.66646630      -0.34607175      -0.22411391      -0.00598128       0.28570075 
Ni       9.59249158      11.53680791      12.80414812       0.03102900       0.00793600      -0.06924700      -2.00351612       0.37964272      -0.97384419      -0.58311827       0.40877582       0.21464131 
Ni      12.34472535       9.51696840      12.54419324      -0.06113800      -0.07913600       0.04615000       0.14642018      -1.33897766       1.73933247       0.23731727       0.29561580       0.04663113 
Ni      12.02367980      11.91261518      13.02570231      -0.06242600       0.03313200       0.05236100      -0.12610509      -0.22117961       1.76327903      -0.13823532       0.19775032       0.08485919 
Ni      10.83138229      10.44332001      14.26553057      -0.02321900      -0.00355300      -0.04732600      -0.72085665      -0.53538038       1.14578273       0.26270801      -1.03058149       0.26303161 
Ni       9.97291493       9.97824897       9.05384462      -0.03983700       0.06318700       0.01085200       0.59803254       0.57588065       0.61883092       0.47228667       0.29562645      -0.02147637 
Ni       9.76141788      12.47288133       9.55056882       0.02191300      -0.08398800      -0.01471400       0.79847119      -0.48646503      -1.03971326      -0.43676882      -0.48931379      -0.22172389 
Ni      12.41960050      10.54411249       9.01883416       0.03276400      -0.00617000       0.07353200       0.88199656      -2.25169332       0.04329559       0.00356768      -1.29910867       0.46599157 
Ni      12.19319247      12.67477963       9.61397334      -0.01083100       0.01423900      -0.09925000      -0.32971595       2.59380661      -1.30405115      -0.88252279       0.87288987      -0.15487927 
Ni      10.96421831      11.65535978       7.69518201       0.00159600       0.05402200       0.01899500      -1.58717701       0.19042707      -0.39257276      -0.13803403       0.21428741       0.38861305 
19
Lattice="21.0 0.0 0.0 0.0 21.0 0.0 0.0 0.0 21.0" Properties=species:S:1:pos:R:3:force:R:3:momenta:R:3:forces:R:3 energy=-14.421900874551955 pbc="F F F"
Ni       8.90386337       8.51883493      10.41459784      -0.01982600      -0.06520100      -0.01028300       1.35125709       1.22519566      -0.18258367       0.20288931      -0.44429854      -0.22717966 
Ni       8.69539960      10.74038670      10.77333849      -0.01482600       0.11454800       0.02023000      -0.98319463      -1.45418745      -0.19166716      -0.26758823      -0.41761985       0.56448321 
Ni       8.25168854      12.86698461      11.35687705       0.10724900      -0.09382900       0.01392000       1.61126911      -0.50108591      -1.26315229       0.29931196       0.54738346      -0.16458802 
Ni      11.35941755       8.66820039      10.36535631       0.04798900      -0.02715200       0.00162400      -1.18457779      -0.66306704      -0.51166735       0.31922267      -0.50452401       0.64551915 
Ni      11.18922104      10.94344433      10.92762965      -0.07340800      -0.00248000       0.01643400       1.12839741       1.13970809      -0.27215359      -0.29383880       0.60241667       0.85091452 
Ni      10.64009359      13.32361026      11.62852586      -0.13222700      -0.07598300       0.05288400       1.93637909       0.25095969      -0.57247560      -0.51405768      -0.51814906      -0.39400122 
Ni      13.77553815       9.12669537      10.43186020      -0.02870800      -0.01329000      -0.03093500      -0.05996972      -2.31546249       0.38508346      -0.50767064      -0.05068882       0.69702844 
Ni      13.46428700      11.30715458      11.25797727       0.07943400       0.02248300      -0.06184000      -0.67958617       1.44040426       0.53865222      -0.31907811       0.37349637      -0.15247442 
Ni      12.86837699      13.67058820      11.76433785       0.06670400       0.02338900       0.01244600      -0.31728176       0.74968583       1.18931892       0.17673046      -0.68192343      -0.28180699 
Ni      10.02302065       9.22849882      12.31279812       0.07846900       0.11782600       0.04173100      -0.32371221       0.66167337       0.72704440      -0.02055041       0.35786610       0.00095521 
Ni       9.44566571      11.58691544      12.81790916       0.03102900       0.00793600      -0.06924700      -0.24667960       0.33155930       1.22572108       0.84431963      -0.15803724       0.30450274 
Ni      12.39166259       9.50433221      12.61169035      -0.06113800      -0.07913600       0.04615000       0.65680524       1.14809590      -0.68289325      -0.00360641       0.41719373      -0.74598400 
Ni      11.96344061      11.90418214      13.10917551      -0.06242600       0.03313200       0.05236100      -1.39654338      -0.39252700      -0.46372275      -0.19657004      -0.19649287      -0.50381685 
Ni      10.77922835      10.27783140      14.30674832      -0.02321900      -0.00355300      -0.04732600      -0.68605153      -2.42718136      -0.98899775       0.00295102       0.11391716      -0.68114197 
Ni      10.06851629      10.03542818       9.05949748      -0.03983700       0.06318700       0.01085200       0.98647791       0.61745043      -1.06530570      -0.33677425      -0.11477355      -0.55174265 
Ni       9.75466892      12.41614720       9.52045178       0.02191300      -0.08398800      -0.01471400      -0.84675867      -0.01194908       1.07675764      -0.24621281       0.34486191       0.55508558 
Ni      12.44009201      10.32677213       9.05979167       0.03276400      -0.00617000       0.07353200      -0.43968445      -0.96772173      -0.11171153      -0.07560457       1.01573315      -0.44678213 
Ni      12.07774535      12.87043780       9.55585324      -0.01083100       0.01423900      -0.09925000      -1.79290117       0.80342260       0.62323389       0.04352417      -0.74878484       0.58456724 
Ni      10.90809094      11.68354770       7.72559324       0.00159600       0.05402200       0.01899500       1.28635523       0.36502695       0.54051902       0.89260275       0.06242367      -0.05353820 
19
Lattice="21.0 0.0 0.0 0.0 21.0 0.0 0.0 0.0 21.0" Properties=species:S:1:pos:R:3:force:R:3:momenta:R:3:forces:R:3 energy=-14.746956173762417 pbc="F F F"
Ni       9.03902352       8.48274041      10.33854057      -0.01982600      -0.06520100      -0.01028300       1.68053552      -2.17264118      -1.59700182      -0.13383009      -0.37709071      -0.18749039 
Ni       8.61272424      10.64195410      10.85587340      -0.01482600       0.11454800       0.02023000      -0.47259281      -0.19057275       1.64947435       0.21021228       0.43463662      -0.00772766 
Ni       8.38846546      12.92271944      11.29375969       0.10724900      -0.09382900       0.01392000       0.72108739       1.36942405       0.52092636      -0.80160461       0.11906055       0.76565670 
Ni      11.34544579       8.58526541      10.43425970       0.04798900      -0.02715200       0.00162400       0.71458935      -0.42826160       1.61046760       0.07832527       0.44725950       0.00052701 
Ni      11.14597046      11.06119984      11.00734120      -0.07340800      -0.00248000       0.01643400      -2.65303673       0.28837301       0.73131629      -0.75638841      -0.91446878      -0.57538428 
Ni      10.64265304      13.29130249      11.54679707      -0.13222700      -0.07598300       0.05288400      -1.60911040      -0.15789759      -0.75542446      -0.22477486       0.42391322       0.43078830 
Ni      13.62182571       8.99763967      10.57752415      -0.02870800      -0.01329000      -0.03093500      -3.28201550      -0.20102450       2.50772472      -0.05331346       0.55619468      -0.10196486 
Ni      13.42637261      11.44901726      11.23160288       0.07943400       0.02248300      -0.06184000       0.38995226       1.45062100      -1.43886237       0.38241159      -0.45085261      -0.53149798 
Ni      12.89344118      13.61405717      11.81337460       0.06670400       0.02338900       0.01244600       0.64295946      -1.72137372       0.10489507      -0.08437587      -0.12533562      -0.15037267 
Ni       9.99079454       9.31620445      12.29602333       0.07846900       0.11782600       0.04173100      -0.54966850       0.86736954      -1.89481297      -0.01327600      -0.21942746      -0.73052232 
Ni       9.53661413      11.59686049      12.91283114       0.03102900       0.00793600      -0.06924700       1.17085015       0.21952661       0.36910606      -0.50619106       0.19227509      -0.43245561 
Ni      12.43484616       9.63562588      12.45090872      -0.06113800      -0.07913600       0.04615000       0.10541247       1.41139712      -2.40913329      -0.38166381      -0.19788427       0.24162096 
Ni      11.84185169      11.85561358      13.03779419      -0.06242600       0.03313200       0.05236100      -0.68380000      -0.27574407      -0.38421517       0.61705042       0.38221517       0.39386717 
Ni      10.77363940      10.11816290      14.17168235      -0.02321900      -0.00355300      -0.04732600       0.98479474      -1.37730024      -1.06872406       0.58745426       0.08334330       0.60349955 
Ni      10.07418059      10.06706513       8.94659224      -0.03983700       0.06318700       0.01085200      -0.82444073       0.19421963      -0.61666150      -0.13553067      -0.01427071       0.51437105 
Ni       9.68537268      12.41727438       9.60116446       0.02191300      -0.08398800      -0.01471400      -0.20388109      -0.71603501      -0.58497788       0.30664367      -0.57122744      -1.02776649 
Ni      12.43848761      10.38103290       9.02481427       0.03276400      -0.00617000       0.07353200       0.72514918       1.40147109       0.48104118       0.30075649      -0.02429332       0.79367467 
Ni      11.99602298      12.80843700       9.68210418      -0.01083100       0.01423900      -0.09925000       0.57996695      -1.62809233       2.07208444       0.87332014      -0.08209601      -0.00296416 
Ni      11.11228545      11.75781990       7.77702125       0.00159600       0.05402200       0.01899500       2.56324829       1.66654095       0.70277747      -0.26522529       0.33804880       0.00414102 
19
Lattice="21.0 0.0 0.0 0.0 21.0 0.0 0.0 0.0 21.0" Properties=species:S:1:pos:R:3:force:R:3:momenta:R:3:forces:R:3 energy=-14.590425810273734 pbc="F F F"
Ni       9.12464639       8.29940720      10.18071608      -0.01982600      -0.06520100      -0.01028300       0.25545882      -1.52462243      -1.69312908      -0.30712885       0.51111963       0.15028027 
Ni       8.56064178      10.68278971      10.92053570      -0.01482600       0.11454800       0.02023000      -1.22400507       0.80281918      -0.63214770      -0.39715666      -0.03225394      -0.68704736 
Ni       8.30248657      13.01549390      11.40756797       0.10724900      -0.09382900       0.01392000      -1.60439710       0.44235881       1.10175530       0.31056637      -0.39889175      -0.33791084 
Ni      11.35149493       8.59182060      10.49706666       0.04798900      -0.02715200       0.00162400      -0.55081370       0.16316060      -0.77282820       0.10039355       0.06649188      -0.59812452 
Ni      10.89589537      10.97909808      10.96623728      -0.07340800      -0.00248000       0.01643400      -1.89055279      -0.71106838      -1.31188294       0.79674464       0.68194132       0.03876742 
Ni      10.56158618      13.35807861      11.55359752      -0.13222700      -0.07598300       0.05288400       0.03326082       1.11146415       0.34575127       0.27604327      -0.18726472      -0.11324048 
Ni      13.55823991       9.04158501      10.66244776      -0.02870800      -0.01329000      -0.03093500       2.76611960       0.80117503      -0.63712655       0.90959831      -0.03919165      -0.21560724 
Ni      13.51299218      11.41142386      11.05185300       0.07943400       0.02248300      -0.06184000       1.45512022      -2.44312211      -1.51278493       0.20229000      -0.48285146       0.99302782 
Ni      12.91256341      13.53149799      11.82121149       0.06670400       0.02338900       0.01244600       0.00346404       0.47518463       0.19936287       0.11691774       0.60058272       0.03771783 
Ni       9.91040426       9.31765080      12.15018005       0.07846900       0.11782600       0.04173100      -1.61871270      -1.08836242       0.17215040      -0.18368236      -0.44174782       0.97798126 
Ni       9.53698320      11.62686276      12.90253830       0.03102900       0.00793600      -0.06924700      -0.50660977       0.00779776      -0.09694064       0.13555634      -0.27847028       0.14441654 
Ni      12.32218988       9.72685474      12.39839725      -0.06113800      -0.07913600       0.04615000      -2.50153698       0.47044460       1.23584134       0.01903299      -0.59373111       0.08901038 
Ni      11.89667500      11.90858506      13.05905405      -0.06242600       0.03313200       0.05236100       1.30480867       1.19657281       0.50211726      -0.11083375      -0.00315640      -0.08114513 
Ni      10.93154337      10.02134230      14.15715460      -0.02321900      -0.00355300      -0.04732600       1.92221971      -0.62986575       0.13416620      -0.40176401       0.38140144       0.07049710 
Ni      10.03686251      10.09511894       8.96985907      -0.03983700       0.06318700       0.01085200       0.24904208       0.07448843       0.49057561       0.32635122      -0.33336711      -0.22988059 
Ni       9.67248407      12.30566689       9.44190134       0.02191300      -0.08398800      -0.01471400      -0.72486011      -0.61414297      -1.59394894      -0.35066965       0.71511211       0.69600825 
Ni      12.50454095      10.45387234       9.20058316       0.03276400      -0.00617000       0.07353200       0.05080747       0.05132784       2.76045647      -0.61611461      -0.37893732      -0.36385040 
Ni      12.13541336      12.70791294       9.82623379      -0.01083100       0.01423900      -0.09925000       1.15815809      -0.23880601       0.76545897      -0.70479615       0.58072631      -0.52077187 
Ni      11.27237390      11.92493067       7.83287432       0.00159600       0.05402200       0.01899500       1.42302869       1.65319623       0.54315331      -0.12134838      -0.36751185      -0.05012845 
19
Lattice="21.0 0.0 0.0 0.0 21.0 0.0 0.0 0.0 21.0" Properties=species:S:1:pos:R:3:force:R:3:momenta:R:3:forces:R:3 energy=-14.661448956240838 pbc="F F F"
Ni       9.09920530       8.31582454      10.11157779      -0.01982600      -0.06520100      -0.01028300      -0.49166381       2.03478896       0.30706300       0.08748493       0.67560893       0.50778057 
Ni       8.44201753      10.70286166      10.77095062      -0.01482600       0.11454800       0.02023000      -0.77185976      -0.75270431      -2.22442992       0.51351441      -0.41797459       0.08286752 
Ni       8.27862658      12.97665030      11.43665007       0.10724900      -0.09382900       0.01392000       1.31529291      -1.49770726      -0.27923104       0.68415522      -0.46995367      -0.15905160 
Ni      11.38218830       8.63511019      10.39202805       0.04798900      -0.02715200       0.00162400       1.30215342       0.80104302      -0.89831327       0.08022576      -0.14449044       0.35118722 
Ni      10.82516757      11.04171329      10.95887118      -0.07340800      -0.00248000       0.01643400      -1.41598358       1.47916491       1.38620677      -0.93935228      -0.16380746       0.31396706 
Ni      10.58009817      13.37414262      11.55041520      -0.13222700      -0.07598300       0.05288400       0.22546789      -0.89711616      -0.11638828       0.11954835      -0.28908860       0.10564275 
Ni      13.80530873       9.07058858      10.62886301      -0.02870800      -0.01329000      -0.03093500       1.38206621      -0.11373937      -0.00217386      -0.96815725      -0.03765903       0.09729944 
Ni      13.64179697      11.26811781      11.17121419       0.07943400       0.02248300      -0.06184000       1.10320899       0.44046686       3.74790133      -0.29301231       1.02563761       0.42632521 
Ni      12.95716986      13.60209088      11.81916546       0.06670400       0.02338900       0.01244600       0.84012833       0.19564893      -0.47288630      -0.08564854      -0.47469575      -0.15069438 
Ni       9.78328604       9.19154283      12.26348097       0.07846900       0.11782600       0.04173100      -1.05743219      -1.19251398       1.39297628       0.33204000       0.38615544      -0.42508554 
Ni       9.56044815      11.56636436      12.89838693       0.03102900       0.00793600      -0.06924700       1.09417095      -1.42660700      -0.37547159       0.09537100      -0.17891260      -0.18026058 
Ni      12.21855834       9.65796058      12.35055389      -0.06113800      -0.07913600       0.04615000       0.33210198      -1.59274986      -2.84630452       0.29725569      -0.01287255      -0.36294487 
Ni      11.93757467      11.96055139      13.05360913      -0.06242600       0.03313200       0.05236100      -0.23192069      -0.34269995      -0.76398267      -0.14714749      -0.43821886      -0.35059668 
Ni      10.95525638      10.07086810      14.18967061      -0.02321900      -0.00355300      -0.04732600      -1.22671973       1.79195272       0.49210186      -0.26870450       0.29058605      -0.25594922 
Ni      10.09752288      10.06244955       8.92276037      -0.03983700       0.06318700       0.01085200       0.77954142      -0.11570605      -1.57247114      -0.18282262       0.44168601      -0.20400434 
Ni       9.58686954      12.38932287       9.45647761       0.02191300      -0.08398800      -0.01471400      -0.54479865       1.97647272       1.54072106       0.49997604       0.02890269       0.26056413 
Ni      12.39102120      10.39706898       9.29131918       0.03276400      -0.00617000       0.07353200      -1.69871727      -0.82486568      -0.25898202       0.54979195       0.36183932      -0.16452086 
Ni      12.10348933      12.75550135       9.84585700      -0.01083100       0.01423900      -0.09925000      -1.19927187       0.80390271       0.25805576       0.05073526      -0.09996332       0.18284656 
Ni      11.35441169      11.96126253       7.88815810       0.00159600       0.05402200       0.01899500       0.26423546      -0.76703121       0.68560855      -0.42525364      -0.48277918      -0.07537240 
19
Lattice="21.0 0.0 0.0 0.0 21.0 0.0 0.0 0.0 21.0" Properties=species:S:1:pos:R:3:force:R:3:momenta:R:3:forces:R:3 energy=-14.760220178826922 pbc="F F F"
Ni       9.08152047       8.54107018      10.19747944      -0.01982600      -0.06520100      -0.01028300      -0.02344747       1.66234746       0.83911333      -0.21636791      -1.41084634      -0.60450879 
Ni       8.43721927      10.59499791      10.62966856      -0.01482600       0.11454800       0.02023000      -0.38860756      -0.89353525      -1.14754943      -0.66484093       0.68325779       0.22763709 
Ni       8.40932865      12.81645908      11.42550031       0.10724900      -0.09382900       0.01392000       0.74524266      -1.82896911       0.33684328      -0.45520617       0.08761560       0.04697495 
Ni      11.41572367       8.62612168      10.34587383       0.04798900      -0.02715200       0.00162400      -0.67066835      -0.59946813      -0.78142440      -0.07656149       0.40976252      -0.05999278 
Ni      10.56925385      10.99637254      10.98837001      -0.07340800      -0.00248000       0.01643400      -2.39244314      -2.91296193      -1.69581418       0.97014892      -0.23487334      -0.56401656 
Ni      10.61921434      13.34542146      11.61028384      -0.13222700      -0.07598300       0.05288400       0.82524100       0.78286955       1.67279485       0.01726644       0.28163348       0.34397813 
Ni      13.76916320       9.09803214      10.61462587      -0.02870800      -0.01329000      -0.03093500      -1.78939658       1.33224184      -0.41735724      -0.27052407       0.42315099      -0.02749118 
Ni      13.76316681      11.41403330      11.48368643       0.07943400       0.02248300      -0.06184000       1.97370858       1.28163812       2.99685555       0.01618350      -1.09257507      -0.50166545 
Ni      13.00209126      13.54590574      11.76705333       0.06670400       0.02338900       0.01244600       0.22660404      -0.78641481      -0.32764699       0.02696129       0.51041554       0.31651984 
Ni       9.79461892       9.17249460      12.30233844       0.07846900       0.11782600       0.04173100       1.29221261       0.56192941       0.02580547       0.42874435       0.05623481       0.10016354 
Ni       9.56098469      11.46891451      12.88478434       0.03102900       0.00793600      -0.06924700      -1.90406312      -0.24892905       0.61638325      -0.68368442       0.52945523       0.40565818 
Ni      12.23523861       9.59234729      12.23773234      -0.06113800      -0.07913600       0.04615000      -0.36770334       0.54940870       1.42742531      -0.15691786       0.47086711       1.08572716 
Ni      11.92849089      11.86177548      12.93068726      -0.06242600       0.03313200       0.05236100       0.09329530      -1.73547805      -1.73936485      -0.04143242      -0.10037009       0.10892519 
Ni      10.87569789      10.20128391      14.17019089      -0.02321900      -0.00355300      -0.04732600       0.04308360       0.40232466      -0.28803488       0.56181878      -0.59470093       0.24658802 
Ni      10.11235819      10.13982669       8.80007718      -0.03983700       0.06318700       0.01085200      -0.53457039       1.46352641      -0.91161763      -0.17699892      -0.14612430       0.37872346 
Ni       9.66470182      12.50845024       9.53567880       0.02191300      -0.08398800      -0.01471400       2.08455991       0.74385293      -0.38664167       0.20400763      -0.18823563      -0.59938880 
Ni      12.42929989      10.46432797       9.29017566       0.03276400      -0.00617000       0.07353200       2.27049151       2.10533553       0.39623108       0.23579816       0.14462722      -0.00970186 
Ni      12.04093985      12.76056702       9.88524852      -0.01083100       0.01423900      -0.09925000      -0.22280757      -0.97650614       0.19635977       0.19337442      -0.36424571      -0.30269100 
Ni      11.29100497      11.85159065       7.90055434       0.00159600       0.05402200       0.01899500      -1.26073170      -0.90321215      -0.81236061       0.08823070       0.53495111      -0.59143913 
19
Lattice="21.0 0.0 0.0 0.0 21.0 0.0 0.0 0.0 21.0" Properties=species:S:1:pos:R:3:force:R:3:momenta:R:3:forces:R:3 energy=-15.6593095629517 pbc="F F F"
Ni       9.08749351       8.48544390      10.18632627      -0.01982600      -0.06520100      -0.01028300       0.40499864      -1.05187820      -0.29439153       0.05817246       0.62201724       0.18553217 
Ni       8.24379312      10.68149910      10.54651037      -0.01482600       0.11454800       0.02023000      -4.56404129       2.26158010      -2.25209787      -1.47043523       0.25481842      -1.69596497 
Ni       8.33566027      12.78786494      11.41004400       0.10724900      -0.09382900       0.01392000      -2.99339783       2.43406684      -0.74257752      -0.90157795       1.17111512      -0.10786168 
Ni      11.42843743       8.73685857      10.31387009       0.04798900      -0.02715200       0.00162400       1.44906786       3.13430521       0.11278938       0.30087018       0.40532580       0.16277076 
Ni      10.51086552      10.77248142      10.84084614      -0.07340800      -0.00248000       0.01643400       0.48253376      -2.06702337      -0.83718395      -0.11944621       0.47474900       0.57389551 
Ni      10.65372500      13.36385046      11.75237032      -0.13222700      -0.07598300       0.05288400       0.12468866      -1.52133713       0.84026905      -0.04224498      -1.02180776      -0.69555803 
Ni      13.70491371       9.17474768      10.59319356      -0.02870800      -0.01329000      -0.03093500       0.98523223      -0.09418171       0.17962455       0.52917818      -0.11170778       0.28017338 
Ni      14.00089047      11.29180768      11.72477161       0.07943400       0.02248300      -0.06184000       6.41543961      -3.05348709       5.64942985       2.92063433       0.18043847       2.57638761 
Ni      13.00203590      13.56272949      11.79490281       0.06670400       0.02338900       0.01244600      -0.76322752      -0.36442909       0.52793264      -0.30941585      -0.97526511      -0.25006478 
Ni       9.94127533       9.17384752      12.33781514       0.07846900       0.11782600       0.04173100       1.94848202      -1.21303752       1.17000874       0.36425497      -0.99016233       0.66424361 
Ni       9.40189402      11.48607303      12.98800255       0.03102900       0.00793600      -0.06924700      -0.56651912       0.11181064       1.52944733       0.98165722      -0.01681602       0.08971019 
Ni      12.21381461       9.63810667      12.39253975      -0.06113800      -0.07913600       0.04615000       0.64788072      -0.40573813       0.51502480       0.63878866      -0.46710074      -0.88981994 
Ni      11.87889922      11.79132181      12.87846828      -0.06242600       0.03313200       0.05236100      -1.41300892       0.92359240       0.44339401      -0.14672561       0.61743497      -0.00285337 
Ni      10.94711255      10.15591400      14.19393622      -0.02321900      -0.00355300      -0.04732600       0.92386152      -0.70003385       0.75501749      -0.21589629       0.19738140       0.14025335 
Ni      10.03444082      10.18492971       8.78257343      -0.03983700       0.06318700       0.01085200      -1.28324354      -0.49782005      -0.26894471      -0.12254631      -0.24116060      -0.28973646 
Ni       9.79808324      12.56071415       9.45972787       0.02191300      -0.08398800      -0.01471400       0.07334897       0.46099237      -0.51114017      -0.94145537      -0.18528409       0.52933045 
Ni      12.54708096      10.56283733       9.19867776       0.03276400      -0.00617000       0.07353200      -0.73955570      -0.56045762      -3.93674346      -1.29940217      -0.76736247      -1.49696572 
Ni      12.00709262      12.70626503       9.83586405      -0.01083100       0.01423900      -0.09925000      -1.67188727       1.01512216      -1.50373935      -0.42290462       0.81607470      -0.15182974 
Ni      11.26250895      11.88269990       7.76956919       0.00159600       0.05402200       0.01899500       0.53934719       1.18795404      -1.37611927       0.19849459       0.03731177       0.37835767 
19
Lattice="21.0 0.0 0.0 0.0 21.0 0.0 0.0 0.0 21.0" Properties=species:S:1:pos:R:3:force:R:3:momenta:R:3:forces:R:3 energy=-19.70794359570942 pbc="F F F"
Ni       9.18857440       8.61691562      10.26400192      -0.01982600      -0.06520100      -0.01028300       0.66545110       3.67461764       2.08840299      -1.26589897       0.33768820       0.38487113 
Ni       7.74185911      10.87155739       9.93932957      -0.01482600       0.11454800       0.02023000      -3.76426693       2.71326059     -10.67608062       0.21244646       0.29853968      -0.69740693 
Ni       8.14196290      13.01704506      11.34238197       0.10724900      -0.09382900       0.01392000      -0.01407767       0.94812349      -0.88366029       2.85204334      -1.84355579       0.05936526 
Ni      11.50079933       9.01059281      10.34349608       0.04798900      -0.02715200       0.00162400      -0.04207538       2.67067084       0.15715341      -0.22825361      -0.25916086      -0.20008143 
Ni      10.38077812      10.79182816      10.97676652      -0.07340800      -0.00248000       0.01643400      -5.04091362       1.37930743       5.65470449      -1.57151848      -1.37951569       2.70762317 