16
Lattice="10.20 0.0 0.0 0.0 10.20 0.0 0.0 0.0 10.20" Properties=Z:I:1:pos:R:3:forces:R:3 pbc="T T T"
   28    0.001           0.0000000000    0.0000000000 -0.00055360    0.00002288   -0.00000081
   28    1.3494013500    1.3494013500    1.3494013500 0.00014271    0.00008427    0.00009618
   28   -2.7             2.6988027000    0.0000000000 0.00065496   -0.00001963   -0.00000114
   28   -1.3494013500    4.0482040500    1.3494013500 -0.00016686   -0.00010209   -0.00011325
   28    0.0000000000    2.6988027000    2.6988027000 -0.00005561   -0.00000007   -0.00002364
   28    1.3494013500    4.0482040500    4.0482040500 -0.00002591    0.00001848   -0.00019758
   28   -2.6988027000    5.3976054000    2.6988027000 0.00005824    0.00000025    0.00001932
   28   -1.3494013500    6.7470067500    4.0482040500 -0.00002649    0.00001875    0.00019775
   28   -2.6988027000    0.0000000000    2.6988027000 0.00005887   -0.00000099   -0.00001987
   28   -1.3494013500    1.3494013500    4.0482040500 0.00000133    0.00000021    0.00001157
   28   -5.3976054000    2.6988027000    2.6988027000 -0.00005590   -0.00000057    0.00002297
   28   -4.0482040500    4.0482040500    4.0482040500 0.00000101    0.00000076   -0.00001088
   28   -2.6988027000    2.6988027000    5.3976054000 0.00001155    0.00001949    0.00000029
   28   -1.3494013500    4.0482040500    6.7470067500 0.00014152    0.00008407   -0.00009469
   28   -5.3976054000    5.3976054000    5.3976054000 -0.00001783   -0.00002358   -0.00000018
   28   -4.0482040500    6.7470067500    6.7470067500 -0.00016799   -0.00010223    0.00011396
16
Lattice="10.20 0.0 0.0 0.0 10.20 0.0 0.0 0.0 10.20" Properties=Z:I:1:pos:R:3:forces:R:3 pbc="T T T"
   28  0.001           0.0000000000    0.0000000000 -0.00052838   -0.00000321    0.00000321
   28  1.3494013500    1.3494013500    1.3494013500  0.00012587    0.00010109    0.00008958
   28 -2.6988027000    2.6988027000    0.0000000000 -0.00006370   -0.00007309   -0.00005476
   28 -1.35            4.0482040500    1.3494013500  0.00031357    0.00000604   -0.00000604
   28  0.0000000000    2.6988027000    2.6988027000 -0.00011482    0.00005378   -0.00005378
   28  1.3494013500    4.0482040500    4.0482040500  0.00012587   -0.00008958   -0.00010109
   28 -2.6988027000    5.3976054000    2.6988027000 -0.00006370    0.00005476    0.00007309
   28 -1.3494013500    6.7470067500    4.0482040500  0.00015629   -0.00008938    0.00008938
   28 -2.6988027000    0.0000000000    2.6988027000  0.00002098    0.00000227   -0.00001642
   28 -1.3494013500    1.3494013500    4.0482040500  0.00001543   -0.00000597    0.00000597
   28 -5.3976054000    2.6988027000    2.6988027000 -0.00003127    0.00000340   -0.00000340
   28 -4.0482040500    4.0482040500    4.0482040500 -0.00001645   -0.00000565    0.00000627
   28 -2.6988027000    2.6988027000    5.3976054000  0.00002098    0.00001642   -0.00000227
   28 -1.3494013500    4.0482040500    6.7470067500  0.00013320    0.00008919   -0.00008919
   28 -5.3976054000    5.3976054000    5.3976054000 -0.00007743   -0.00005379    0.00005379
   28 -4.0482040500    6.7470067500    6.7470067500 -0.00001645   -0.00000627    0.00000565
16
Lattice="10.20 0.0 0.0 0.0 10.20 0.0 0.0 0.0 10.20" Properties=Z:I:1:pos:R:3:forces:R:3 pbc="T T T"
   28   0.001          0.0000000000    0.0000000000   -0.00056568    0.00000000    0.00000000
   28   1.3494013500    1.3494013500    1.3494013500   0.00027225   -0.00000066   -0.00000066
   28  -2.6988027000    2.6988027000    0.0000000000   0.00003601   -0.00001957    0.00001856
   28  -1.3494013500    4.0482040500    1.3494013500   0.00013106   -0.00008388    0.00008388
   28   0.001           2.6988027000    2.6988027000  -0.00056572    0.00000000    0.00000000
   28   1.3494013500    4.0482040500    4.0482040500   0.00027225    0.00000066    0.00000066
   28  -2.6988027000    5.3976054000    2.6988027000   0.00003601   -0.00001856    0.00001957
   28  -1.3494013500    6.7470067500    4.0482040500   0.00013092   -0.00008450    0.00008450
   28  -2.6988027000    0.0000000000    2.6988027000   0.00003601    0.00001856   -0.00001957
   28  -1.3494013500    1.3494013500    4.0482040500   0.00013106    0.00008388   -0.00008388
   28  -5.3976054000    2.6988027000    2.6988027000  -0.00002977    0.00000000    0.00000000
   28  -4.0482040500    4.0482040500    4.0482040500  -0.00001083   -0.00000006   -0.00000006
   28  -2.6988027000    2.6988027000    5.3976054000   0.00003601    0.00001957   -0.00001856
   28  -1.3494013500    4.0482040500    6.7470067500   0.00013092    0.00008450   -0.00008450
   28  -5.3976054000    5.3976054000    5.3976054000  -0.00002966    0.00000000    0.00000000
   28  -4.0482040500    6.7470067500    6.7470067500  -0.00001083    0.00000006    0.00000006
16
Lattice="10.20 0.0 0.0 0.0 10.20 0.0 0.0 0.0 10.20" Properties=Z:I:1:pos:R:3:forces:R:3 pbc="T T T"
   28    0.001           0.0000000000    0.0000000000 -0.00045005   -0.00005451   -0.00005451
   28    1.3494013500    1.3494013500    1.3494013500  0.00011626    0.00008998    0.00008998
   28   -2.6988027000    2.6988027000    0.0000000000  0.00009951   -0.00007326    0.00005259
   28   -1.3494013500    4.0482040500    1.3494013500  0.00000614    0.00000544    0.00000576
   28    0.0000000000    2.6988027000    2.6988027000  0.00004755    0.00005382    0.00005382
   28    1.35            4.0482040500    4.0482040500 -0.00018181   -0.00008936   -0.00008936
   28   -2.6988027000    5.3976054000    2.6988027000  0.00001441    0.00000373    0.00001606
   28   -1.3494013500    6.7470067500    4.0482040500  0.00014673   -0.00010023    0.00008995
   28   -2.6988027000    0.0000000000    2.6988027000  0.00009951    0.00005259   -0.00007326
   28   -1.3494013500    1.3494013500    4.0482040500  0.00000614    0.00000576    0.00000544
   28   -5.3976054000    2.6988027000    2.6988027000 -0.00003768    0.00000265    0.00000265
   28   -4.0482040500    4.0482040500    4.0482040500 -0.00000252   -0.00000533   -0.00000533
   28   -2.6988027000    2.6988027000    5.3976054000  0.00001441    0.00001606    0.00000373
   28   -1.3494013500    4.0482040500    6.7470067500  0.00014673    0.00008995   -0.00010023
   28   -5.3976054000    5.3976054000    5.3976054000  0.00000054   -0.00000325   -0.00000325
   28   -4.0482040500    6.7470067500    6.7470067500 -0.00002586    0.00000594    0.00000594
16
Lattice="10.20 0.0 0.0 0.0 10.20 0.0 0.0 0.0 10.20" Properties=Z:I:1:pos:R:3:forces:R:3 pbc="T T T"
   28   0.001           0.0000000000    0.0000000000  -0.00055369   -0.00000072   -0.00002449
   28   1.3494013500    1.3494013500    1.3494013500  -0.00002585    0.00019843   -0.00001807
   28  -2.6988027000    2.6988027000    0.0000000000   0.00005833   -0.00001956   -0.00000086
   28  -1.3494013500    4.0482040500    1.3494013500  -0.00016684    0.00011289    0.00010179
   28   0.0000000000    2.6988027000    2.6988027000  -0.00005561    0.00002377    0.00000001
   28   1.3494013500    4.0482040500    4.0482040500   0.00014268   -0.00009560   -0.00008363
   28  -2.70            5.3976054000    2.6988027000   0.00065495    0.00000046    0.00001951
   28  -1.3494013500    6.7470067500    4.0482040500  -0.00002642   -0.00019655   -0.00001750
   28  -2.6988027000    0.0000000000    2.6988027000   0.00001210   -0.00000080   -0.00001983
   28  -1.3494013500    1.3494013500    4.0482040500   0.00000128   -0.00001198   -0.00000057
   28  -5.3976054000    2.6988027000    2.6988027000  -0.00005585   -0.00002442   -0.00000083
   28  -4.0482040500    4.0482040500    4.0482040500  -0.00016753   -0.00011344    0.00010325
   28  -2.6988027000    2.6988027000    5.3976054000   0.00005826    0.00001960    0.00000050
   28  -1.3494013500    4.0482040500    6.7470067500   0.00014143    0.00009594   -0.00008285
   28  -5.3976054000    5.3976054000    5.3976054000  -0.00001786    0.00000017    0.00002372
   28  -4.0482040500    6.7470067500    6.7470067500   0.00000061    0.00001180   -0.00000013
16
Lattice="10.20 0.0 0.0 0.0 10.20 0.0 0.0 0.0 10.20" Properties=Z:I:1:pos:R:3:forces:R:3 pbc="T T T"
   28   0.001           0.0000000000    0.0000000000   -0.00061267    0.00005339   -0.00005339
   28   1.3494013500    1.3494013500    1.3494013500    0.00012597    0.00008956    0.00007795
   28  -2.6988027000    2.6988027000    0.0000000000   -0.00006374    0.00003446    0.00005278
   28  -1.3494013500    4.0482040500    1.3494013500    0.00001549    0.00000618   -0.00000618
   28   0.0000000000    2.6988027000    2.6988027000   -0.00003006   -0.00000317    0.00000317
   28   1.3494013500    4.0482040500    4.0482040500    0.00012597   -0.00007795   -0.00008956
   28  -2.6988027000    5.3976054000    2.6988027000   -0.00006374   -0.00005278   -0.00003446
   28  -1.35            6.7470067500    4.0482040500    0.00045400   -0.00008911    0.00008911
   28  -2.6988027000    0.0000000000    2.6988027000    0.00002110   -0.00000431   -0.00002254
   28  -1.3494013500    1.3494013500    4.0482040500   -0.00000769   -0.00000617    0.00000617
   28  -5.3976054000    2.6988027000    2.6988027000   -0.00011580   -0.00005339    0.00005339
   28  -4.0482040500    4.0482040500    4.0482040500   -0.00001667   -0.00001699   -0.00000548
   28  -2.6988027000    2.6988027000    5.3976054000    0.00002110    0.00002254    0.00000431
   28  -1.3494013500    4.0482040500    6.7470067500    0.00015632    0.00008915   -0.00008915
   28  -5.3976054000    5.3976054000    5.3976054000    0.00000708    0.00000310   -0.00000310
   28  -4.0482040500    6.7470067500    6.7470067500   -0.00001667    0.00000548    0.00001699
16
Lattice="10.20 0.0 0.0 0.0 10.20 0.0 0.0 0.0 10.20" Properties=Z:I:1:pos:R:3:forces:R:3 pbc="T T T"
   28    0.001           0.0000000000    0.0000000000   -0.00055375   -0.00000109    0.00002326
   28    1.3494013500    1.3494013500    1.3494013500    0.00014267    0.00009661    0.00008390
   28   -2.6988027000    2.6988027000    0.0000000000    0.00005843   -0.00001973   -0.00000091
   28   -1.3494013500    4.0482040500    1.3494013500    0.00000166    0.00001165    0.00000024
   28    0.0000000000    2.6988027000    2.6988027000   -0.00005567   -0.00002387    0.00000003
   28    1.3494013500    4.0482040500    4.0482040500   -0.00002603   -0.00019739    0.00001826
   28   -2.6988027000    5.3976054000    2.6988027000    0.00001151    0.00000007    0.00001939
   28   -1.3494013500    6.7470067500    4.0482040500    0.00014200   -0.00009468    0.00008414
   28   -2.70            0.0000000000    2.6988027000    0.00065548   -0.00000115   -0.00002007
   28   -1.3494013500    1.3494013500    4.0482040500   -0.00016712   -0.00011321   -0.00010230
   28   -5.3976054000    2.6988027000    2.6988027000   -0.00005591    0.00002313   -0.00000067
   28   -4.0482040500    4.0482040500    4.0482040500    0.00000102   -0.00001144    0.00000132
   28   -2.6988027000    2.6988027000    5.3976054000    0.00005819    0.00001963    0.00000037
   28   -1.3494013500    4.0482040500    6.7470067500   -0.00002696    0.00019796    0.00001869
   28   -5.3976054000    5.3976054000    5.3976054000   -0.00001776   -0.00000024   -0.00002363
   28   -4.0482040500    6.7470067500    6.7470067500   -0.00016777    0.00011375   -0.00010204
16
Lattice="10.20 0.0 0.0 0.0 10.20 0.0 0.0 0.0 10.20" Properties=Z:I:1:pos:R:3:forces:R:3 pbc="T T T"
   28    0.001           0.0000000000    0.0000000000    -0.00052845    0.00000307   -0.00000307
   28    1.3494013500    1.3494013500    1.3494013500     0.00012588    0.00008968    0.00010096
   28   -2.6988027000    2.6988027000    0.0000000000     0.00002102   -0.00001618    0.00000231
   28   -1.3494013500    4.0482040500    1.3494013500     0.00001570    0.00000602   -0.00000602
   28    0.0000000000    2.6988027000    2.6988027000    -0.00011480   -0.00005345    0.00005345
   28    1.3494013500    4.0482040500    4.0482040500     0.00012588   -0.00010096   -0.00008968
   28   -2.6988027000    5.3976054000    2.6988027000     0.00002102   -0.00000231    0.00001618
   28   -1.3494013500    6.7470067500    4.0482040500     0.00013315   -0.00008936    0.00008936
   28   -2.6988027000    0.0000000000    2.6988027000    -0.00006371   -0.00005474   -0.00007322
   28   -1.35            1.3494013500    4.0482040500     0.00031316   -0.00000605    0.00000605
   28   -5.3976054000    2.6988027000    2.6988027000    -0.00003122   -0.00000293    0.00000293
   28   -4.0482040500    4.0482040500    4.0482040500    -0.00001644    0.00000592   -0.00000537
   28   -2.6988027000    2.6988027000    5.3976054000    -0.00006371    0.00007322    0.00005474
   28   -1.3494013500    4.0482040500    6.7470067500     0.00015643    0.00008926   -0.00008926
   28   -5.3976054000    5.3976054000    5.3976054000    -0.00007747    0.00005344   -0.00005344
   28   -4.0482040500    6.7470067500    6.7470067500    -0.00001644    0.00000537   -0.00000592
16
Lattice="10.20 0.0 0.0 0.0 10.20 0.0 0.0 0.0 10.20" Properties=Z:I:1:pos:R:3:forces:R:3 pbc="T T T"
   28   0.001           0.0000000000    0.0000000000 -0.00045048    0.00000000    0.00000000
   28   1.3494013500    1.3494013500    1.3494013500  0.00014788    0.00010087    0.00010087
   28  -2.6988027000    2.6988027000    0.0000000000 -0.00002573   -0.00001991    0.00004740
   28  -1.3494013500    4.0482040500    1.3494013500  0.00000716    0.00001755   -0.00001755
   28   0.0000000000    2.6988027000    2.6988027000 -0.00004710    0.00000000    0.00000000
   28   1.3494013500    4.0482040500    4.0482040500  0.00014788   -0.00010087   -0.00010087
   28  -2.6988027000    5.3976054000    2.6988027000 -0.00002573   -0.00004740    0.00001991
   28  -1.3494013500    6.7470067500    4.0482040500 -0.00018834   -0.00030676    0.00030676
   28  -2.6988027000    0.0000000000    2.6988027000 -0.00002573    0.00004740   -0.00001991
   28  -1.3494013500    1.3494013500    4.0482040500  0.00000716   -0.00001755    0.00001755
   28  -5.4             2.6988027000    2.6988027000  0.00124089    0.00000000    0.00000000
   28  -4.0482040500    4.0482040500    4.0482040500 -0.00032972   -0.00022044   -0.00022044
   28  -2.6988027000    2.6988027000    5.3976054000 -0.00002573    0.00001991   -0.00004740
   28  -1.3494013500    4.0482040500    6.7470067500 -0.00018834    0.00030676   -0.00030676
   28  -5.3976054000    5.3976054000    5.3976054000  0.00008562    0.00000000    0.00000000
   28  -4.0482040500    6.7470067500    6.7470067500 -0.00032972    0.00022044    0.00022044
16
Lattice="10.20 0.0 0.0 0.0 10.20 0.0 0.0 0.0 10.20" Properties=Z:I:1:pos:R:3:forces:R:3 pbc="T T T"
   28   0.001           0.0000000000    0.0000000000 -0.00052294    0.00000810    0.00000810
   28   1.3494013500    1.3494013500    1.3494013500  0.00019729    0.00009017    0.00009017
   28  -2.6988027000    2.6988027000    0.0000000000  0.00002679   -0.00001118   -0.00000970
   28  -1.3494013500    4.0482040500    1.3494013500 -0.00003720    0.00000525    0.00003079
   28   0.0000000000    2.6988027000    2.6988027000 -0.00002501   -0.00000883   -0.00000883
   28   1.3494013500    4.0482040500    4.0482040500  0.00012637   -0.00008968   -0.00008968
   28  -2.6988027000    5.3976054000    2.6988027000 -0.00022565   -0.00016102    0.00018111
   28  -1.3494013500    6.7470067500    4.0482040500  0.00010312   -0.00012520    0.00009019
   28  -2.6988027000    0.0000000000    2.6988027000  0.00002679   -0.00000970   -0.00001118
   28  -1.3494013500    1.3494013500    4.0482040500 -0.00003720    0.00003079    0.00000525
   28  -5.3976054000    2.6988027000    2.6988027000 -0.00027780   -0.00016306   -0.00016306
   28  -4.05            4.0482040500    4.0482040500  0.00095158   -0.00000515   -0.00000515
   28  -2.6988027000    2.6988027000    5.3976054000 -0.00022565    0.00018111   -0.00016102
   28  -1.3494013500    4.0482040500    6.7470067500  0.00010312    0.00009019   -0.00012520
   28  -5.3976054000    5.3976054000    5.3976054000 -0.00023921    0.00016242    0.00016242
   28  -4.0482040500    6.7470067500    6.7470067500  0.00005559    0.00000579    0.00000579
16
Lattice="10.20 0.0 0.0 0.0 10.20 0.0 0.0 0.0 10.20" Properties=Z:I:1:pos:R:3:forces:R:3 pbc="T T T"
   28   0.001           0.0000000000    0.0000000000  -0.00055384   -0.00002486   -0.00000055
   28   1.3494013500    1.3494013500    1.3494013500  -0.00002587   -0.00001755    0.00019802
   28  -2.6988027000    2.6988027000    0.0000000000   0.00001168   -0.00001960   -0.00000066
   28  -1.3494013500    4.0482040500    1.3494013500   0.00000160   -0.00000056   -0.00001193
   28   0.0000000000    2.6988027000    2.6988027000  -0.00005566    0.00000001    0.00002391
   28   1.3494013500    4.0482040500    4.0482040500   0.00014244   -0.00008334   -0.00009590
   28  -2.6988027000    5.3976054000    2.6988027000   0.00005834    0.00000025    0.00001954
   28  -1.3494013500    6.7470067500    4.0482040500   0.00014195   -0.00008291    0.00009592
   28  -2.6988027000    0.0000000000    2.6988027000   0.00005877   -0.00000091   -0.00002001 
   28  -1.3494013500    1.3494013500    4.0482040500  -0.00016714    0.00010194    0.00011280
   28  -5.3976054000    2.6988027000    2.6988027000  -0.00005579   -0.00000077   -0.00002457
   28  -4.0482040500    4.0482040500    4.0482040500  -0.00016740    0.00010268   -0.00011283
   28  -2.7             2.6988027000    5.3976054000   0.00065502    0.00001977    0.00000063
   28  -1.3494013500    4.0482040500    6.7470067500  -0.00002699   -0.00001745   -0.00019674
   28  -5.3976054000    5.3976054000    5.3976054000  -0.00001780    0.00002374    0.00000026
   28  -4.0482040500    6.7470067500    6.7470067500   0.00000069   -0.00000045    0.00001212
16
Lattice="10.20 0.0 0.0 0.0 10.20 0.0 0.0 0.0 10.20" Properties=Z:I:1:pos:R:3:forces:R:3 pbc="T T T"
   28   0.001           0.0000000000    0.0000000000  -0.00061269   -0.00005358    0.00005358
   28   1.3494013500    1.3494013500    1.3494013500   0.00012593    0.00007808    0.00008951
   28  -2.6988027000    2.6988027000    0.0000000000   0.00002104   -0.00002242   -0.00000431
   28  -1.3494013500    4.0482040500    1.3494013500  -0.00000741    0.00000614   -0.00000614
   28   0.0000000000    2.6988027000    2.6988027000  -0.00002995    0.00000347   -0.00000347
   28   1.3494013500    4.0482040500    4.0482040500   0.00012593   -0.00008951   -0.00007808
   28  -2.6988027000    5.3976054000    2.6988027000   0.00002104    0.00000431    0.00002242
   28  -1.3494013500    6.7470067500    4.0482040500   0.00015613   -0.00008930    0.00008930
   28  -2.6988027000    0.0000000000    2.6988027000  -0.00006367    0.00005282    0.00003440
   28  -1.3494013500    1.3494013500    4.0482040500   0.00001514   -0.00000628    0.00000628
   28  -5.3976054000    2.6988027000    2.6988027000  -0.00011575    0.00005394   -0.00005394
   28  -4.0482040500    4.0482040500    4.0482040500  -0.00001668   -0.00000570   -0.00001677
   28  -2.6988027000    2.6988027000    5.3976054000  -0.00006367   -0.00003440   -0.00005282
   28  -1.35            4.0482040500    6.7470067500   0.00045423    0.00008901   -0.00008901
   28  -5.3976054000    5.3976054000    5.3976054000   0.00000707   -0.00000334    0.00000334
   28  -4.0482040500    6.7470067500    6.7470067500  -0.00001668    0.00001677    0.00000570
16
Lattice="10.20 0.0 0.0 0.0 10.20 0.0 0.0 0.0 10.20" Properties=Z:I:1:pos:R:3:forces:R:3 pbc="T T T"
   28   0.001           0.0000000000    0.0000000000  -0.00054468    0.00000000    0.00000000
   28   1.3494013500    1.3494013500    1.3494013500   0.00014808    0.00007810    0.00007810
   28  -2.6988027000    2.6988027000    0.0000000000  -0.00002566   -0.00006805   -0.00000082
   28  -1.3494013500    4.0482040500    1.3494013500  -0.00032916   -0.00021103    0.00021103
   28   0.0000000000    2.6988027000    2.6988027000   0.00004752    0.00000000    0.00000000
   28   1.3494013500    4.0482040500    4.0482040500   0.00014808   -0.00007810   -0.00007810
   28  -2.6988027000    5.3976054000    2.6988027000  -0.00002566    0.00000082    0.00006805
   28  -1.3494013500    6.7470067500    4.0482040500   0.00014806   -0.00007772    0.00007772
   28  -2.6988027000    0.0000000000    2.6988027000  -0.00002566   -0.00000082   -0.00006805
   28  -1.3494013500    1.3494013500    4.0482040500  -0.00032916    0.00021103   -0.00021103
   28  -5.3976054000    2.6988027000    2.6988027000   0.00004694    0.00000000    0.00000000
   28  -4.0482040500    4.0482040500    4.0482040500  -0.00033009    0.00020951    0.00020951
   28  -2.6988027000    2.6988027000    5.3976054000  -0.00002566    0.00006805    0.00000082
   28  -1.3494013500    4.0482040500    6.7470067500   0.00014806    0.00007772   -0.00007772
   28  -5.4             5.3976054000    5.3976054000   0.00127910    0.00000000    0.00000000
   28  -4.0482040500    6.7470067500    6.7470067500  -0.00033009   -0.00020951   -0.00020951
16
Lattice="10.20 0.0 0.0 0.0 10.20 0.0 0.0 0.0 10.20" Properties=Z:I:1:pos:R:3:forces:R:3 pbc="T T T"
   28    0.001           0.0000000000    0.0000000000 -0.00052284   -0.00000968   -0.00000968
   28    1.3494013500    1.3494013500    1.3494013500  0.00012680    0.00009011    0.00009011
   28   -2.6988027000    2.6988027000    0.0000000000 -0.00022526   -0.00018141    0.00016030
   28   -1.3494013500    4.0482040500    1.3494013500 -0.00003715   -0.00003072   -0.00000537
   28    0.0000000000    2.6988027000    2.6988027000 -0.00002500    0.00000916    0.00000916
   28    1.3494013500    4.0482040500    4.0482040500  0.00019700   -0.00008965   -0.00008965
   28   -2.6988027000    5.3976054000    2.6988027000  0.00002639    0.00000915    0.00001079
   28   -1.3494013500    6.7470067500    4.0482040500  0.00010314   -0.00008887    0.00012620
   28   -2.6988027000    0.0000000000    2.6988027000 -0.00022526    0.00016030   -0.00018141
   28   -1.3494013500    1.3494013500    4.0482040500 -0.00003715   -0.00000537   -0.00003072
   28   -5.3976054000    2.6988027000    2.6988027000 -0.00027793    0.00016199    0.00016199
   28   -4.0482040500    4.0482040500    4.0482040500  0.00005587   -0.00000520   -0.00000520
   28   -2.6988027000    2.6988027000    5.3976054000  0.00002639    0.00001079    0.00000915
   28   -1.3494013500    4.0482040500    6.7470067500  0.00010314    0.00012620   -0.00008887
   28   -5.3976054000    5.3976054000    5.3976054000 -0.00023934   -0.00016256   -0.00016256
   28   -4.05            6.7470067500    6.7470067500  0.00095119    0.00000574    0.00000574
16
Lattice="10.20 0.0 0.0 0.0 10.20 0.0 0.0 0.0 10.20" Properties=Z:I:1:pos:R:3:forces:R:3 pbc="T T T"
   28     0.001           0.0000000000    0.0000000000  -0.00044988    0.00005309    0.00005309
   28     1.35            1.3494013500    1.3494013500  -0.00018163    0.00008983    0.00008983
   28    -2.6988027000    2.6988027000    0.0000000000   0.00001484   -0.00001625   -0.00000461
   28    -1.3494013500    4.0482040500    1.3494013500   0.00000616   -0.00000601   -0.00000578
   28     0.0000000000    2.6988027000    2.6988027000   0.00004767   -0.00005354   -0.00005354
   28     1.3494013500    4.0482040500    4.0482040500   0.00011625   -0.00008948   -0.00008948
   28    -2.6988027000    5.3976054000    2.6988027000   0.00009897   -0.00005321    0.00007284
   28    -1.3494013500    6.7470067500    4.0482040500   0.00014678   -0.00008852    0.00010147
   28    -2.6988027000    0.0000000000    2.6988027000   0.00001484   -0.00000461   -0.00001625
   28    -1.3494013500    1.3494013500    4.0482040500   0.00000616   -0.00000578   -0.00000601
   28    -5.3976054000    2.6988027000    2.6988027000  -0.00003769   -0.00000371   -0.00000371
   28    -4.0482040500    4.0482040500    4.0482040500  -0.00002573   -0.00000528   -0.00000528
   28    -2.6988027000    2.6988027000    5.3976054000   0.00009897    0.00007284   -0.00005321
   28    -1.3494013500    4.0482040500    6.7470067500   0.00014678    0.00010147   -0.00008852
   28    -5.3976054000    5.3976054000    5.3976054000   0.00000051    0.00000315    0.00000315
   28    -4.0482040500    6.7470067500    6.7470067500  -0.00000297    0.00000599    0.00000599
16
Lattice="10.20 0.0 0.0 0.0 10.20 0.0 0.0 0.0 10.20" Properties=Z:I:1:pos:R:3:forces:R:3 pbc="T T T"
   28    0.0000000000    0.0010000000    0.0000000000  0.00008180   -0.00047869    0.00005322
   28    1.35            1.3494013500    1.3494013500 -0.00022761    0.00013614    0.00008959
   28   -2.6988027000    2.6988027000    0.0000000000 -0.00002274    0.00002158   -0.00000417
   28   -1.3494013500    4.0482040500    1.3494013500  0.00001688   -0.00001645   -0.00000612
   28    0.0000000000    2.6988027000    2.6988027000  0.00008151   -0.00003551   -0.00003439
   28    1.3494013500    4.0482040500    4.0482040500 -0.00010915    0.00013653    0.00009003
   28   -2.6988027000    5.3976054000    2.6988027000  0.00008096   -0.00008730    0.00005330
   28   -1.3494013500    6.7470067500    4.0482040500 -0.00007876    0.00013717   -0.00007821
   28   -2.6988027000    0.0000000000    2.6988027000 -0.00000320   -0.00003799    0.00000319
   28   -1.3494013500    1.3494013500    4.0482040500  0.00000572   -0.00000634   -0.00001647
   28   -5.3976054000    2.6988027000    2.6988027000 -0.00000349    0.00001425   -0.00002328
   28   -4.0482040500    4.0482040500    4.0482040500 -0.00002571   -0.00000559    0.00000563
   28   -2.6988027000    2.6988027000    5.3976054000  0.00010024    0.00007156   -0.00005328
   28   -1.3494013500    4.0482040500    6.7470067500  0.00010036    0.00014767   -0.00008860
   28   -5.3976054000    5.3976054000    5.3976054000 -0.00000446    0.00000788    0.00000323
   28   -4.0482040500    6.7470067500    6.7470067500  0.00000764   -0.00000491    0.00000634
16
Lattice="10.20 0.0 0.0 0.0 10.20 0.0 0.0 0.0 10.20" Properties=Z:I:1:pos:R:3:forces:R:3 pbc="T T T"
   28   0.0000000000    0.0010000000    0.0000000000 -0.00002089   -0.00051032   -0.00000036
   28   1.3494013500    1.3494013500    1.3494013500  0.00009782    0.00012922    0.00009650
   28  -2.7             2.6988027000    0.0000000000  0.00061654    0.00001892   -0.00000138
   28  -1.3494013500    4.0482040500    1.3494013500 -0.00015755   -0.00011131   -0.00011386
   28   0.0000000000    2.6988027000    2.6988027000 -0.00002112    0.00001803   -0.00000297
   28   1.3494013500    4.0482040500    4.0482040500 -0.00025150    0.00024392   -0.00001714
   28  -2.6988027000    5.3976054000    2.6988027000  0.00004003   -0.00003327   -0.00000079
   28  -1.3494013500    6.7470067500    4.0482040500 -0.00025284    0.00024468    0.00001687
   28  -2.6988027000    0.0000000000    2.6988027000  0.00004094   -0.00003565    0.00000058
   28  -1.3494013500    1.3494013500    4.0482040500  0.00000181    0.00000002    0.00000198
   28  -5.3976054000    2.6988027000    2.6988027000 -0.00002264    0.00001788    0.00000265
   28  -4.0482040500    4.0482040500    4.0482040500  0.00000065    0.00000138   -0.00000157
   28  -2.6988027000    2.6988027000    5.3976054000  0.00001424    0.00001735    0.00000116
   28  -1.3494013500    4.0482040500    6.7470067500  0.00009655    0.00012903   -0.00009487
   28  -5.3976054000    5.3976054000    5.3976054000 -0.00002349   -0.00001810   -0.00000010
   28  -4.0482040500    6.7470067500    6.7470067500 -0.00015855   -0.00011178    0.00011328
16
Lattice="10.20 0.0 0.0 0.0 10.20 0.0 0.0 0.0 10.20" Properties=Z:I:1:pos:R:3:forces:R:3 pbc="T T T"
   28   0.0000000000    0.0010000000    0.0000000000   0.00000356   -0.00053572    0.00000260
   28   1.3494013500    1.3494013500    1.3494013500   0.00007998    0.00014770    0.00008975
   28  -2.6988027000    2.6988027000    0.0000000000  -0.00010096   -0.00003543   -0.00005468
   28  -1.35            4.0482040500    1.3494013500   0.00032416   -0.00000486   -0.00000612
   28   0.0000000000    2.6988027000    2.6988027000  -0.00008134    0.00007174   -0.00003434
   28   1.3494013500    4.0482040500    4.0482040500  -0.00009969    0.00013663    0.00007853
   28  -2.6988027000    5.3976054000    2.6988027000  -0.00008196    0.00002008    0.00005319
   28  -1.3494013500    6.7470067500    4.0482040500  -0.00006920    0.00013723   -0.00008962
   28  -2.6988027000    0.0000000000    2.6988027000   0.00000318   -0.00003163    0.00000310
   28  -1.3494013500    1.3494013500    4.0482040500   0.00001526   -0.00000627   -0.00000499
   28  -5.3976054000    2.6988027000    2.6988027000   0.00000295    0.00002068   -0.00002321
   28  -4.0482040500    4.0482040500    4.0482040500  -0.00001629   -0.00000556    0.00001710
   28  -2.6988027000    2.6988027000    5.3976054000   0.00002201    0.00001461   -0.00000276
   28  -1.3494013500    4.0482040500    6.7470067500   0.00008669    0.00013616   -0.00008855
   28  -5.3976054000    5.3976054000    5.3976054000  -0.00008262   -0.00004912    0.00005360
   28  -4.0482040500    6.7470067500    6.7470067500  -0.00000575   -0.00001624    0.00000639
16
Lattice="10.20 0.0 0.0 0.0 10.20 0.0 0.0 0.0 10.20" Properties=Z:I:1:pos:R:3:forces:R:3 pbc="T T T"
   28    0.0000000000    0.0010000000    0.0000000000  -0.00001268   -0.00053326   -0.00000065
   28    1.3494013500    1.3494013500    1.3494013500   0.00010279    0.00012434    0.00007836
   28   -2.6988027000    2.6988027000    0.0000000000  -0.00006385   -0.00002984   -0.00000068
   28   -1.3494013500    4.0482040500    1.3494013500  -0.00031905   -0.00022142    0.00021094
   28    0.001           2.6988027000    2.6988027000   0.00008123    0.00001812    0.00001979
   28    1.3494013500    4.0482040500    4.0482040500  -0.00007739    0.00014799    0.00010180
   28   -2.6988027000    5.3976054000    2.6988027000  -0.00004387   -0.00003378    0.00004777
   28   -1.3494013500    6.7470067500    4.0482040500  -0.00007811    0.00014838   -0.00010187
   28   -2.6988027000    0.0000000000    2.6988027000  -0.00004352   -0.00003487   -0.00004821