2
Lattice="10.20 0.0 0.0 0.0 10.20 0.0 0.0 0.0 10.20" Properties=Z:I:1:pos:R:3:forces:R:3 pbc="T T T"
28 0.00 0.00 0.00 0.00557078    0.00000000    0.00000000
28 1.36 1.349401350 1.349401350 -0.00557078    0.00000000    0.00000000
2
Lattice="10.20 0.0 0.0 0.0 10.20 0.0 0.0 0.0 10.20" Properties=Z:I:1:pos:R:3:forces:R:3 pbc="T T T"
28 0.00 0.00 0.00 0.01082348    0.00000000    0.00000000
28 1.37 1.349401350 1.349401350 -0.01082348    0.00000000    0.00000000
2
Lattice="10.20 0.0 0.0 0.0 10.20 0.0 0.0 0.0 10.20" Properties=Z:I:1:pos:R:3:forces:R:3 pbc="T T T"
28 0.00 0.00 0.00 0.01607037    0.00000000    0.00000000
28 1.38 1.349401350 1.349401350 -0.01607037    0.00000000    0.00000000
2
Lattice="10.20 0.0 0.0 0.0 10.20 0.0 0.0 0.0 10.20" Properties=Z:I:1:pos:R:3:forces:R:3 pbc="T T T"
28 0.00 0.01 0.00 0.00557110   -0.00525713    0.00014631
28 1.36 1.349401350 1.349401350 -0.00557110    0.00525713   -0.00014631
2
Lattice="10.20 0.0 0.0 0.0 10.20 0.0 0.0 0.0 10.20" Properties=Z:I:1:pos:R:3:forces:R:3 pbc="T T T"
28 0.00 0.02 0.00 0.00557276   -0.01051075    0.00029282
28 1.36 1.349401350 1.349401350 -0.00557276    0.01051075   -0.00029282
2
Lattice="10.20 0.0 0.0 0.0 10.20 0.0 0.0 0.0 10.20" Properties=Z:I:1:pos:R:3:forces:R:3 pbc="T T T"
28 0.00 0.01 0.00 0.01082461   -0.00525870    0.00028471
28 1.37 1.349401350 1.349401350 -0.01082461    0.00525870   -0.00028471
2
Lattice="10.20 0.0 0.0 0.0 10.20 0.0 0.0 0.0 10.20" Properties=Z:I:1:pos:R:3:forces:R:3 pbc="T T T"
28 0.00 0.02 0.00 0.01082775   -0.01051406    0.00056979
28 1.37 1.349401350 1.349401350 -0.01082775    0.01051406   -0.00056979
2
Lattice="10.20 0.0 0.0 0.0 10.20 0.0 0.0 0.0 10.20" Properties=Z:I:1:pos:R:3:forces:R:3 pbc="T T T"
28 0.00 0.00 0.00 0.00136644    0.00000000    0.00000000
28 1.352 1.349401350 1.349401350 -0.00136644    0.00000000    0.00000000
2
Lattice="10.20 0.0 0.0 0.0 10.20 0.0 0.0 0.0 10.20" Properties=Z:I:1:pos:R:3:forces:R:3 pbc="T T T"
28 0.00 0.00 0.00 0.00241769	0.00000000   -0.00000000
28 1.354 1.349401350 1.349401350 -0.00241769   -0.00000000    0.00000000
2
Lattice="10.20 0.0 0.0 0.0 10.20 0.0 0.0 0.0 10.20" Properties=Z:I:1:pos:R:3:forces:R:3 pbc="T T T"
28 0.00 0.00 0.00 0.00031469    0.00000000    0.00000000
28 1.35 1.349401350 1.349401350 -0.00031469    0.00000000    0.00000000
2
Lattice="10.20 0.0 0.0 0.0 10.20 0.0 0.0 0.0 10.20" Properties=Z:I:1:pos:R:3:forces:R:3 pbc="T T T"
28 0.00 0.00 0.00 0.00010448    0.00000000   -0.00000000
28 1.3496 1.349401350 1.349401350 -0.00010448   -0.00000000    0.00000000
2
Lattice="10.20 0.0 0.0 0.0 10.20 0.0 0.0 0.0 10.20" Properties=Z:I:1:pos:R:3:forces:R:3 pbc="T T T"
28 0.00 0.005 0.00 0.00031440   -0.00262864    0.00000373
28 1.35 1.349401350 1.349401350 -0.00031440    0.00262864   -0.00000373
2
Lattice="10.20 0.0 0.0 0.0 10.20 0.0 0.0 0.0 10.20" Properties=Z:I:1:pos:R:3:forces:R:3 pbc="T T T"
28 0.00 0.002 0.00 0.00031447   -0.00105187    0.00000125
28 1.35 1.349401350 1.349401350 -0.00031447    0.00105187   -0.00000125
2
Lattice="10.20 0.0 0.0 0.0 10.20 0.0 0.0 0.0 10.20" Properties=Z:I:1:pos:R:3:forces:R:3 pbc="T T T"
28 0.00 0.002 0.00 0.00010415   -0.00105164    0.00000007
28 1.3496 1.349401350 1.349401350 -0.00010415    0.00105164   -0.00000007



 



