96
Lattice="24.941531629 0.0 0.0 0.0 28.8 0.0 0.0 0.0 2.0" Properties=species:S:1:pos:R:3:momenta:R:3:force:R:3:Z:I:1:forces:R:3 energy=-298.845511874 pbc="T T F"
Si     -0.01846198      -0.03587104       0.00000000      -0.27777570       1.17461730       0.00000000       0.10471069       0.89021256       0.00000000       14       0.10471069       0.89021256       0.00000000 
Si      2.07412060       1.08310376       0.00000000      -0.24756698      -1.73656444       0.00000000      -0.06634448       0.20860992       0.00000000       14      -0.06634448       0.20860992       0.00000000 
Si      2.12972462       3.43711025       0.00000000      -0.17119734      -0.39727394       0.00000000      -0.29089762       0.87089926       0.00000000       14      -0.29089762       0.87089926       0.00000000 
Si      0.10276798       4.75293621       0.00000000       1.42738152      -1.99643011       0.00000000      -0.11287584      -0.87830554       0.00000000       14      -0.11287584      -0.87830554       0.00000000 
Si      0.01289526       7.09231918       0.00000000       1.35235313      -0.18137360       0.00000000       0.88633842       0.69595704       0.00000000       14       0.88633842       0.69595704       0.00000000 
Si      2.02878468       8.40647517       0.00000000       0.08910288      -0.91139279       0.00000000       0.52137334      -0.59773807       0.00000000       14       0.52137334      -0.59773807       0.00000000 
Si      1.97079391      10.79939948       0.00000000      -1.41499043      -0.06400443       0.00000000       0.14064809      -0.08777413       0.00000000       14       0.14064809      -0.08777413       0.00000000 
Si     -0.07651263      12.01908278       0.00000000      -0.25199962       0.30736862       0.00000000       0.33336451      -0.05587051       0.00000000       14       0.33336451      -0.05587051       0.00000000 
Si      0.01799992      14.38563816       0.00000000      -0.77557981      -0.04215782       0.00000000      -0.42795428       0.24616022       0.00000000       14      -0.42795428       0.24616022       0.00000000 
Si      2.04075921      15.60343482       0.00000000       0.70244968       1.35331984       0.00000000       0.85133401       0.81182288       0.00000000       14       0.85133401       0.81182288       0.00000000 
Si      2.12707365      18.08561279       0.00000000      -0.48946748      -0.24027331       0.00000000      -0.71197997      -0.71238431       0.00000000       14      -0.71197997      -0.71238431       0.00000000 
Si     -0.03513932      19.20444775       0.00000000      -0.46043327      -0.08539220       0.00000000       0.10823525       0.07233759       0.00000000       14       0.10823525       0.07233759       0.00000000 
Si     -0.02239790      21.63926184       0.00000000      -0.81984223       0.39743830       0.00000000      -0.20636601      -0.19482229       0.00000000       14      -0.20636601      -0.19482229       0.00000000 
Si      2.02347758      22.90065535       0.00000000      -0.93307208       1.32572830       0.00000000      -0.31173077      -0.03197367       0.00000000       14      -0.31173077      -0.03197367       0.00000000 
Si      2.07294339      25.28640151       0.00000000       0.37610990       0.66835693       0.00000000       0.57286077      -0.38004583       0.00000000       14       0.57286077      -0.38004583       0.00000000 
Si      0.09791222      26.47638630       0.00000000       1.37583751      -0.15927860       0.00000000      -0.29050574      -0.48420578       0.00000000       14      -0.29050574      -0.48420578       0.00000000 
Si      4.17206543       0.02282856       0.00000000       0.21674186       0.25961454       0.00000000       0.12575434      -0.14974480       0.00000000       14       0.12575434      -0.14974480       0.00000000 
Si      6.22680436       1.24474558       0.00000000       0.62069721      -0.04755921       0.00000000       0.39534619      -0.29430679       0.00000000       14       0.39534619      -0.29430679       0.00000000 
Si      6.28403537       3.60778087       0.00000000      -0.66230941       0.73354726       0.00000000      -0.81835065       0.30695380       0.00000000       14      -0.81835065       0.30695380       0.00000000 
Si      4.12349801       4.76431875       0.00000000       0.96866114      -0.98684634       0.00000000       0.78694044      -0.24097638       0.00000000       14       0.78694044      -0.24097638       0.00000000 
Si      4.17436663       7.17100895       0.00000000      -1.38053015      -0.19818999       0.00000000      -0.95415082      -0.00127254       0.00000000       14      -0.95415082      -0.00127254       0.00000000 
Si      6.25734396       8.28302565       0.00000000       0.48810388       0.06150513       0.00000000      -0.07025013       1.05931482       0.00000000       14      -0.07025013       1.05931482       0.00000000 
Si      6.22013946      10.75584651       0.00000000       0.38857660      -0.66626797       0.00000000       0.29294071       0.02068235       0.00000000       14       0.29294071       0.02068235       0.00000000 
Si      4.06574362      11.94985023       0.00000000      -0.32888373       0.42856336       0.00000000       0.69509930       0.67495087       0.00000000       14       0.69509930       0.67495087       0.00000000 
Si      4.16474771      14.43805376       0.00000000       0.55783128      -0.39484872       0.00000000       0.27794948      -0.52014758       0.00000000       14       0.27794948      -0.52014758       0.00000000 
Si      6.34588778      15.63260703       0.00000000      -0.18787118       0.15304253       0.00000000      -1.19123705      -0.23454988       0.00000000       14      -1.19123705      -0.23454988       0.00000000 
Si      6.19553236      18.01528414       0.00000000      -0.67197097       0.39928334       0.00000000       0.12906693       0.22327737       0.00000000       14       0.12906693       0.22327737       0.00000000 
Si      4.16698530      19.31362061       0.00000000       0.43144667       1.62975418       0.00000000      -0.10188163      -0.11982571       0.00000000       14      -0.10188163      -0.11982571       0.00000000 
Si      4.06088165      21.71521516       0.00000000      -0.96344609       0.37144946       0.00000000       0.14327066      -0.60607786       0.00000000       14       0.14327066      -0.60607786       0.00000000 
Si      6.13814705      22.80196628       0.00000000      -0.85762369       0.52362125       0.00000000       0.25821462       0.41040389       0.00000000       14       0.25821462       0.41040389       0.00000000 
Si      6.17536799      25.19028121       0.00000000      -0.35709667       0.52402197       0.00000000       0.39711253       0.53280306       0.00000000       14       0.39711253       0.53280306       0.00000000 
Si      4.12959071      26.45603819       0.00000000       0.16280953       0.20103267       0.00000000       0.39054148      -0.28930622       0.00000000       14       0.39054148      -0.28930622       0.00000000 
Si      8.32540387       0.05039922       0.00000000      -1.05442364       0.12780189       0.00000000      -0.58814302      -0.36402564       0.00000000       14      -0.58814302      -0.36402564       0.00000000 
Si     10.40739324       1.13879262       0.00000000       1.20205030      -0.18803922       0.00000000       0.62808844       0.37009015       0.00000000       14       0.62808844       0.37009015       0.00000000 
Si     10.39033285       3.54481318       0.00000000       1.40348341      -0.41093424       0.00000000       1.00860635       0.10130901       0.00000000       14       1.00860635       0.10130901       0.00000000 
Si      8.35261704       4.76277336       0.00000000       0.30949870      -0.95786706       0.00000000      -0.06086240      -0.34711718       0.00000000       14      -0.06086240      -0.34711718       0.00000000 
Si      8.30953829       7.10299459       0.00000000       0.41729499      -0.19463825       0.00000000       0.24919513       0.54159553       0.00000000       14       0.24919513       0.54159553       0.00000000 
Si     10.34379265       8.37519061       0.00000000      -0.38514872      -2.29677829       0.00000000       0.28795523      -0.86391208       0.00000000       14       0.28795523      -0.86391208       0.00000000 
Si     10.40626358      10.71633868       0.00000000       0.76287934       1.27572129       0.00000000       0.25075301       1.23211877       0.00000000       14       0.25075301       1.23211877       0.00000000 
Si      8.38382894      12.01937122       0.00000000      -0.32087732      -0.19818042       0.00000000      -0.78849215      -0.27126721       0.00000000       14      -0.78849215      -0.27126721       0.00000000 
Si      8.40554903      14.46544660       0.00000000       1.41151946      -0.00042833       0.00000000      -0.12105135      -0.83330322       0.00000000       14      -0.12105135      -0.83330322       0.00000000 
Si     10.44980567      15.61970569       0.00000000       0.23567844      -0.05630943       0.00000000      -0.28384392       0.08958988       0.00000000       14      -0.28384392       0.08958988       0.00000000 
Si     10.46004215      17.97280359       0.00000000      -0.99518600       0.72537303       0.00000000      -1.41322555       0.72344807       0.00000000       14      -1.41322555       0.72344807       0.00000000 
Si      8.24706646      19.20407273       0.00000000       0.83163668      -0.37368278       0.00000000       1.05149107      -0.31535330       0.00000000       14       1.05149107      -0.31535330       0.00000000 
Si      8.19996418      21.60623753       0.00000000      -0.48175647       0.08117296       0.00000000       0.80065405       0.07357652       0.00000000       14       0.80065405       0.07357652       0.00000000 
Si     10.37587448      22.78863744       0.00000000      -0.80209865       0.87974656       0.00000000      -0.37115985       0.58598469       0.00000000       14      -0.37115985       0.58598469       0.00000000 
Si     10.42674150      25.29713616       0.00000000      -0.16076244      -0.58358440       0.00000000      -0.44010859      -1.20537508       0.00000000       14      -0.44010859      -1.20537508       0.00000000 
Si      8.28954470      26.45234051       0.00000000      -0.35975622       0.39780751       0.00000000      -0.07488777      -0.30879146       0.00000000       14      -0.07488777      -0.30879146       0.00000000 
Si     12.54724322      -0.02258137       0.00000000       0.34715662      -0.25915599       0.00000000      -0.59441698      -0.05651807       0.00000000       14      -0.59441698      -0.05651807       0.00000000 
Si     14.54498064       1.26730356       0.00000000      -0.44186059      -1.73871657       0.00000000      -0.40136083      -1.15407225       0.00000000       14      -0.40136083      -1.15407225       0.00000000 
Si     14.59105340       3.53845253       0.00000000       1.05359377       2.24930808       0.00000000       0.09222085       1.47290726       0.00000000       14       0.09222085       1.47290726       0.00000000 
Si     12.56685911       4.74322915       0.00000000      -0.50110079      -1.14712031       0.00000000      -1.27852541       0.10803234       0.00000000       14      -1.27852541       0.10803234       0.00000000 
Si     12.44162756       7.17541328       0.00000000      -0.22284776       0.21092081       0.00000000       0.18573107       0.10976646       0.00000000       14       0.18573107       0.10976646       0.00000000 
Si     14.48256215       8.49305541       0.00000000      -0.30426512       1.03977374       0.00000000       0.31423863      -0.03434857       0.00000000       14       0.31423863      -0.03434857       0.00000000 
Si     14.62476051      10.93510687       0.00000000      -0.43531891       1.05864421       0.00000000      -1.10778487      -0.58118506       0.00000000       14      -1.10778487      -0.58118506       0.00000000 
Si     12.46910261      12.05404471       0.00000000      -0.24292038      -1.57950939       0.00000000      -0.03847978      -1.09751454       0.00000000       14      -0.03847978      -1.09751454       0.00000000 
Si     12.42091551      14.38859766       0.00000000       1.12897353       1.52460345       0.00000000       1.17166055       0.62731092       0.00000000       14       1.17166055       0.62731092       0.00000000 
Si     14.53338087      15.63339969       0.00000000      -1.49807256      -0.05093450       0.00000000      -0.76684568      -0.32943066       0.00000000       14      -0.76684568      -0.32943066       0.00000000 
Si     14.50081181      18.00114461       0.00000000       0.24439570      -0.43412194       0.00000000       0.58175359      -0.24988051       0.00000000       14       0.58175359      -0.24988051       0.00000000 
Si     12.47917104      19.16979441       0.00000000       0.04374933       0.46910674       0.00000000      -0.11243060       0.49187263       0.00000000       14      -0.11243060       0.49187263       0.00000000 
Si     12.46824305      21.56329533       0.00000000      -0.28347488      -0.71717364       0.00000000      -0.22905684       0.13301051       0.00000000       14      -0.22905684       0.13301051       0.00000000 
Si     14.54959720      22.74832746       0.00000000       0.60022022      -0.12449214       0.00000000       0.30405284       0.17360102       0.00000000       14       0.30405284       0.17360102       0.00000000 
Si     14.58635589      25.16464515       0.00000000       0.36724090      -1.22129908       0.00000000      -0.05445440      -0.38961296       0.00000000       14      -0.05445440      -0.38961296       0.00000000 
Si     12.55287554      26.36106647       0.00000000       0.82614606       0.68345591       0.00000000      -0.21251381       0.64607972       0.00000000       14      -0.21251381       0.64607972       0.00000000 
Si     16.52546992       0.06443936       0.00000000      -0.34906674       0.18712078       0.00000000       0.98616260      -0.68398281       0.00000000       14       0.98616260      -0.68398281       0.00000000 
Si     18.63006153       1.22554455       0.00000000      -0.44747874       0.75906820       0.00000000       0.33009181       0.37415358       0.00000000       14       0.33009181       0.37415358       0.00000000 
Si     18.60089121       3.69612484       0.00000000      -1.11154071      -0.68421290       0.00000000       0.44278097      -1.23036238       0.00000000       14       0.44278097      -1.23036238       0.00000000 
Si     16.57369593       4.86863413       0.00000000      -1.44594967       0.61528675       0.00000000      -0.25290018       0.05978825       0.00000000       14      -0.25290018       0.05978825       0.00000000 
Si     16.57067306       7.25723288       0.00000000      -0.22966729       1.21840653       0.00000000       0.27624090       0.33792160       0.00000000       14       0.27624090       0.33792160       0.00000000 
Si     18.75193406       8.37865730       0.00000000       0.06073686      -0.73256517       0.00000000      -0.14904748      -0.27058006       0.00000000       14      -0.14904748      -0.27058006       0.00000000 
Si     18.60643597      10.77763016       0.00000000       0.45897096       0.08620020       0.00000000       1.18634416       0.29935032       0.00000000       14       1.18634416       0.29935032       0.00000000 
Si     16.64455202      12.11259341       0.00000000       0.05403952       1.59471960       0.00000000       0.02664365      -0.13145351       0.00000000       14       0.02664365      -0.13145351       0.00000000 
Si     16.59842670      14.47772270       0.00000000      -0.50570423       0.06071372       0.00000000      -0.10621662      -0.33281583       0.00000000       14      -0.10621662      -0.33281583       0.00000000 
Si     18.67837538      15.53546390       0.00000000       0.98939039       0.30760744       0.00000000       1.02927690       0.75760887       0.00000000       14       1.02927690       0.75760887       0.00000000 
Si     18.71899352      17.97589712       0.00000000       0.40085646      -1.09317122       0.00000000       0.06493515      -0.41910880       0.00000000       14       0.06493515      -0.41910880       0.00000000 
Si     16.61061543      19.11542335       0.00000000      -0.19128746       0.42234447       0.00000000       0.20035744       0.91777519       0.00000000       14       0.20035744       0.91777519       0.00000000 
Si     16.66514385      21.57986552       0.00000000      -0.31698275      -1.33947857       0.00000000      -0.55199410      -0.74827051       0.00000000       14      -0.55199410      -0.74827051       0.00000000 
Si     18.70921664      22.77311914       0.00000000       0.74241256      -1.37184336       0.00000000       0.22417027      -0.54053642       0.00000000       14       0.22417027      -0.54053642       0.00000000 
Si     18.63402287      25.11297633       0.00000000       0.13808820       1.20247053       0.00000000       0.91609892       1.39771886       0.00000000       14       0.91609892       1.39771886       0.00000000 
Si     16.59052683      26.42371360       0.00000000      -0.06119562       0.59627043       0.00000000       0.27908646       0.06095658       0.00000000       14       0.27908646       0.06095658       0.00000000 
Si     20.77053096      -0.01431684       0.00000000      -0.76358364       0.63983135       0.00000000      -0.38332980       0.21728101       0.00000000       14      -0.38332980       0.21728101       0.00000000 
Si     22.86854045       1.18031245       0.00000000       0.21549870      -0.40012850       0.00000000      -0.14332031       0.10124121       0.00000000       14      -0.14332031       0.10124121       0.00000000 
Si     22.95220302       3.59071450       0.00000000      -0.21431178       0.15223373       0.00000000      -0.88685022      -0.06167458       0.00000000       14      -0.88685022      -0.06167458       0.00000000 
Si     20.74112270       4.73172594       0.00000000       1.19897915       0.45658945       0.00000000       1.14478844       0.83418905       0.00000000       14       1.14478844       0.83418905       0.00000000 
Si     20.92764280       7.19785349       0.00000000       0.47690176      -0.91576783       0.00000000      -0.98788019      -0.55861466       0.00000000       14      -0.98788019      -0.55861466       0.00000000 
Si     23.00053060       8.36676732       0.00000000       0.66086084       0.92789793       0.00000000      -0.85067057       0.74157925       0.00000000       14      -0.85067057       0.74157925       0.00000000 
Si     22.83542219      10.82293785       0.00000000      -0.07945266      -1.02160722       0.00000000       0.06718435      -0.81636822       0.00000000       14       0.06718435      -0.81636822       0.00000000 
Si     20.75898204      11.97902274       0.00000000      -1.43678763      -0.93950063       0.00000000      -0.61687672      -0.34583556       0.00000000       14      -0.61687672      -0.34583556       0.00000000 
Si     20.82628519      14.35221828       0.00000000       0.17712459       0.35847926       0.00000000      -0.36129489       0.53042916       0.00000000       14      -0.36129489       0.53042916       0.00000000 
Si     22.90289428      15.60934579       0.00000000       0.13833872      -1.43835554       0.00000000      -0.39030956      -0.82494224       0.00000000       14      -0.39030956      -0.82494224       0.00000000 
Si     22.80950184      17.95122152       0.00000000       0.44927446       0.83752322       0.00000000       0.93868668       0.71913155       0.00000000       14       0.93868668       0.71913155       0.00000000 
Si     20.81188295      19.19750994       0.00000000      -0.36961626      -0.67640225       0.00000000      -0.67807915      -0.30687754       0.00000000       14      -0.67807915      -0.30687754       0.00000000 
Si     20.80106874      21.57087158       0.00000000      -0.44616167       0.51209041       0.00000000      -0.16032260       0.49602606       0.00000000       14      -0.16032260       0.49602606       0.00000000 
Si     22.83831429      22.84394132       0.00000000       0.73812979      -0.01072825       0.00000000       0.59368281      -0.18819820       0.00000000       14       0.59368281      -0.18819820       0.00000000 
Si     23.07040607      25.24030383       0.00000000      -0.14415431       0.90634493       0.00000000      -2.06694169       0.04369395       0.00000000       14      -2.06694169       0.04369395       0.00000000 
Si     20.82185130      26.37431756       0.00000000       0.61124522      -1.81231919       0.00000000       0.03416884      -0.65286662       0.00000000       14       0.03416884      -0.65286662       0.00000000 
96
Lattice="24.941531629 0.0 0.0 0.0 28.8 0.0 0.0 0.0 2.0" Properties=species:S:1:pos:R:3:momenta:R:3:force:R:3:Z:I:1:forces:R:3 energy=-297.964430902 pbc="T T F"
Si     -0.02774567       0.04865469       0.00000000      -0.12839260       0.01202005       0.00000000      -0.23926066      -0.83129712       0.00000000       14      -0.23926066      -0.83129712       0.00000000 
Si      2.07188188       1.02893808       0.00000000       0.62308542       0.97601200       0.00000000       0.62695409       1.06787194       0.00000000       14       0.62695409       1.06787194       0.00000000 
Si      2.14957945       3.41179921       0.00000000       1.09814794      -0.61011936       0.00000000       0.58959748      -0.14881777       0.00000000       14       0.58959748      -0.14881777       0.00000000 
Si      0.14752275       4.59502946       0.00000000      -0.71403643      -0.63497940       0.00000000      -0.92730605       1.27801241       0.00000000       14      -0.92730605       1.27801241       0.00000000 
Si      0.14280221       7.08792050       0.00000000       0.52145169      -0.50092171       0.00000000      -1.27053489      -0.63645866       0.00000000       14      -1.27053489      -0.63645866       0.00000000 
Si      2.07773936       8.33763470       0.00000000       0.74042263       0.11423528       0.00000000      -0.06002647       0.93213031       0.00000000       14      -0.06002647       0.93213031       0.00000000 
Si      1.92420592      10.77368041       0.00000000       0.75912029      -0.42722496       0.00000000       1.09368124       0.09044418       0.00000000       14       1.09368124       0.09044418       0.00000000 
Si     -0.09805459      12.02636016       0.00000000      -0.39347693      -0.20148212       0.00000000      -0.07365953      -0.26161302       0.00000000       14      -0.07365953      -0.26161302       0.00000000 
Si     -0.00524389      14.41314312       0.00000000       0.94695099       0.64308872       0.00000000       0.99208612       0.28977016       0.00000000       14       0.99208612       0.28977016       0.00000000 
Si      2.14402820      15.71292800       0.00000000       1.02542182       0.05253068       0.00000000      -0.46771193      -1.33922585       0.00000000       14      -0.46771193      -1.33922585       0.00000000 
Si      2.06468445      18.06813299       0.00000000      -0.45949389       0.57347159       0.00000000       0.45620363       0.81618369       0.00000000       14       0.45620363       0.81618369       0.00000000 
Si     -0.04086598      19.22417411       0.00000000       0.53870908       0.72678256       0.00000000       0.43630882       0.26009531       0.00000000       14       0.43630882       0.26009531       0.00000000 
Si     -0.06783637      21.63466433       0.00000000       0.27564343      -0.43752595       0.00000000       0.51505015      -0.09095798       0.00000000       14       0.51505015      -0.09095798       0.00000000 
Si      1.92740714      22.97124239       0.00000000      -0.88988731      -0.14956577       0.00000000       0.48430462      -0.91521169       0.00000000       14       0.48430462      -0.91521169       0.00000000 
Si      2.16228583      25.30372418       0.00000000       1.05611946      -0.09371628       0.00000000      -0.49479869       0.06353365       0.00000000       14      -0.49479869       0.06353365       0.00000000 
Si      0.12622542      26.46882859       0.00000000      -1.10250197       0.24688777       0.00000000      -1.04378678       0.13894306       0.00000000       14      -1.04378678       0.13894306       0.00000000 
Si      4.21553650       0.01448706       0.00000000       0.69243052      -0.39400117       0.00000000      -0.02541280      -0.02831369       0.00000000       14      -0.02541280      -0.02831369       0.00000000 
Si      6.26404354       1.24833297       0.00000000      -0.23579582       0.38664326       0.00000000      -0.47663431       0.18562724       0.00000000       14      -0.47663431       0.18562724       0.00000000 
Si      6.22082857       3.63747326       0.00000000       0.20964358      -0.57260193       0.00000000       1.07987679      -0.78639680       0.00000000       14       1.07987679      -0.78639680       0.00000000 
Si      4.18484978       4.71299395       0.00000000      -0.43739664       0.25415863       0.00000000      -1.11518738       0.63938267       0.00000000       14      -1.11518738       0.63938267       0.00000000 
Si      4.07109420       7.13498836       0.00000000       0.16643172      -0.71753325       0.00000000       1.63019553      -0.11245955       0.00000000       14       1.63019553      -0.11245955       0.00000000 
Si      6.25527230       8.34314184       0.00000000      -0.70385455       0.52779550       0.00000000      -0.61875648      -0.55999280       0.00000000       14      -0.61875648      -0.55999280       0.00000000 
Si      6.24899624      10.73733265       0.00000000      -0.14499541       0.55828584       0.00000000      -0.60718825       0.61265565       0.00000000       14      -0.60718825       0.61265565       0.00000000 
Si      4.09216620      11.99308691       0.00000000       0.68509650      -0.11246156       0.00000000       0.17210477      -0.73925153       0.00000000       14       0.17210477      -0.73925153       0.00000000 
Si      4.21588802      14.39494462       0.00000000       0.27043947      -0.07071251       0.00000000      -0.52407014       0.42110563       0.00000000       14      -0.52407014       0.42110563       0.00000000 
Si      6.27336960      15.62246667       0.00000000      -0.69890814      -0.38058682       0.00000000       0.64400105      -0.02585038       0.00000000       14       0.64400105      -0.02585038       0.00000000 
Si      6.18971858      18.06944836       0.00000000       0.59673752       0.55559936       0.00000000       0.28798002      -0.21888044       0.00000000       14       0.28798002      -0.21888044       0.00000000 
Si      4.14107873      19.37918274       0.00000000      -1.27480976      -0.54769259       0.00000000      -0.51142860      -0.98114705       0.00000000       14      -0.51142860      -0.98114705       0.00000000 
Si      3.99107807      21.74192894       0.00000000      -0.62141891       0.63174715       0.00000000       0.18207658       0.31538863       0.00000000       14       0.18207658       0.31538863       0.00000000 
Si      6.10013106      22.86911192       0.00000000       0.19251466       0.70294799       0.00000000       0.55646681      -0.17426278       0.00000000       14       0.55646681      -0.17426278       0.00000000 
Si      6.19198196      25.26663201       0.00000000       0.67889524       0.85451972       0.00000000       0.33346621      -0.39528993       0.00000000       14       0.33346621      -0.39528993       0.00000000 
Si      4.18893600      26.46398033       0.00000000       1.06639189       0.24281622       0.00000000       0.18769073       0.14900402       0.00000000       14       0.18769073       0.14900402       0.00000000 
Si      8.27635671       0.03588942       0.00000000       0.77710311      -0.34612979       0.00000000       1.19584404      -0.02366794       0.00000000       14       1.19584404      -0.02366794       0.00000000 
Si     10.50114785       1.13640434       0.00000000       0.05170139      -0.10784419       0.00000000      -1.16998132      -0.27799048       0.00000000       14      -1.16998132      -0.27799048       0.00000000 
Si     10.52969319       3.49674302       0.00000000       0.56141872      -0.71781457       0.00000000      -1.39028607      -0.06558018       0.00000000       14      -1.39028607      -0.06558018       0.00000000 
Si      8.38636932       4.67203108       0.00000000       0.60513001      -0.80828166       0.00000000       0.16193876       0.34469440       0.00000000       14       0.16193876       0.34469440       0.00000000 
Si      8.32968394       7.08504013       0.00000000      -0.28259942      -0.60646427       0.00000000      -0.45957991      -0.29911208       0.00000000       14      -0.45957991      -0.29911208       0.00000000 
Si     10.36742190       8.24982362       0.00000000       0.80365145       0.58144666       0.00000000       0.28407848       1.74550090       0.00000000       14       0.28407848       1.74550090       0.00000000 
Si     10.43262998      10.79695205       0.00000000      -0.75454009      -0.64152847       0.00000000      -0.89456905      -1.51002196       0.00000000       14      -0.89456905      -1.51002196       0.00000000 
Si      8.32030009      11.98523501       0.00000000      -0.63598011      -0.56103010       0.00000000       0.40096125      -0.11117318       0.00000000       14       0.40096125      -0.11117318       0.00000000 
Si      8.44267379      14.39477003       0.00000000      -0.98746970      -1.10002010       0.00000000      -1.07457898       0.31215237       0.00000000       14      -1.07457898       0.31215237       0.00000000 