19
Lattice="10.0 0.0 0.0 0.0 10.0 0.0 0.0 0.0 10.0" Properties=species:S:1:pos:R:3:force:R:3:momenta:R:3:forces:R:3 energy=-11.575719626144291 pbc="F F F"
Ni       3.71744272       3.23043036       5.25673373       0.10269700       0.13483100       0.03424100       0.90605536       0.55804853       1.24586547       0.56386071       0.44730170       0.42430431 
Ni       3.45251604       5.70071147       5.91870338      -0.07016000      -0.01812900      -0.07052500      -2.43195072       1.56110351      -0.48315977       0.21526683      -0.60424502      -0.24446095 
Ni       3.05048808       7.91906689       6.56554084       0.09894900      -0.06706800      -0.00966300       0.37915097      -0.71264374       1.49068050       0.25992782       0.32854714      -0.50670228 
Ni       6.26926188       3.01705407       5.71577922      -0.01026200      -0.08710600       0.02090800       1.12132177      -1.83034721      -0.78747836       0.04458934       0.33259767      -0.23396229 
Ni       6.46847463       6.54656374       5.78927472      -0.01006200      -0.00088200      -0.00082600       2.77337646       2.63364468      -0.62415166       0.68256756       0.52086969      -0.78205627 
Ni       5.53388793       8.50409287       6.59145810       0.00872400       0.07032800       0.09324900       0.10983335      -1.22759351      -0.82184540      -0.05397648       0.15033807      -0.41191761 
Ni       8.59838496       3.86711278       5.69235614      -0.09717700       0.06892700       0.01710400      -1.76189743      -0.63388527       1.50179350      -0.43725337       0.58734786      -0.47952991 
Ni       8.83537177       6.48269929       6.14456186       0.07713800       0.03706600      -0.01545100       3.32895090       0.80521995       0.93504252      -0.36565218      -0.50255734       0.69292323 
Ni       7.85004857       8.60582545       6.52485746      -0.09340200      -0.12078900      -0.02597700      -1.85945820      -2.29173113      -0.45215947       0.00121597      -0.49826585       0.43143995 
Ni       4.86485401       4.16576235       7.13201135      -0.02119200      -0.12588400       0.05554600      -0.66200338      -1.25148256      -1.12229259      -0.11198732       0.37426631      -0.24264214 
Ni       4.59208093       6.75662778       7.72432560       0.04119100       0.05217700       0.02017900       2.48346064      -0.92134884      -3.45051533       0.78653879      -1.02438059       0.25282309 
Ni       7.45422840       4.80067244       7.43395778      -0.01654600      -0.02484500       0.00511100      -2.24784253       1.16389863      -1.40920005      -0.00317869      -0.22259915      -0.59223899 
Ni       7.04436616       6.98784650       8.01392639       0.00318300       0.07397900       0.06612500      -2.29368948      -2.30108398      -0.92895597      -0.10838515       0.27784411      -0.08154986 
Ni       5.86662707       5.11850377       8.98032515      -0.00042700       0.02679400      -0.12180600       0.88204023       1.26590505      -0.03446524      -0.37821346       0.39057610       0.54950361 
Ni       5.22817691       4.87037614       4.42709319      -0.08227100      -0.01105900      -0.04816600      -1.13291651      -0.86921570       3.75628647      -0.94397547      -0.38958126       0.61303496 
Ni       4.57145688       7.30883608       4.60439986      -0.03799100      -0.06390300      -0.00949800       0.37837853       1.56483682      -0.38849423      -1.04848442       0.65893239       1.52271006 
Ni       7.40837704       5.06265777       3.78874828       0.01584300       0.02788800       0.00540500       1.54126706      -1.51633930      -1.06004563       1.22248638      -1.04828138       0.59845647 
Ni       7.14936900       8.41444662       4.40929339       0.09781500       0.05654500      -0.05191500      -1.48995865       4.07091122      -1.29897574      -0.98797702      -0.41812177       0.04255810 
Ni       6.04459741       6.64069161       3.28666106      -0.00146400      -0.02344600       0.10544600      -0.02411838      -0.06789713       3.93207097       0.66263017       0.63941132      -1.55269346 
19
Lattice="10.0 0.0 0.0 0.0 10.0 0.0 0.0 0.0 10.0" Properties=species:S:1:pos:R:3:force:R:3:momenta:R:3:forces:R:3 energy=-12.425319388335005 pbc="F F F"
Ni       3.72928026       3.17015356       5.49332680       0.10269700       0.13483100       0.03424100       0.01292018      -0.42855179       0.59576339       0.49669802       0.42355747      -0.25716595 
Ni       3.15541442       5.52549837       5.77403153      -0.07016000      -0.01812900      -0.07052500      -0.71741647      -1.84215773      -0.48014813       0.42940740       0.06394115       0.08528058 
Ni       3.17372362       7.98787053       6.73602738       0.09894900      -0.06706800      -0.00966300       0.32085056      -0.03194012       2.01295162       0.13278131      -0.26572561      -0.23272887 
Ni       6.28093757       3.03336211       5.55114172      -0.01026200      -0.08710600       0.02090800      -0.73069724       2.31969732      -0.99706881       0.17368628       0.32710722      -0.05693372 
Ni       7.03221044       6.75330359       5.25643815      -0.01006200      -0.00088200      -0.00082600       2.52905898      -0.13961920      -1.76584783      -0.16459560       0.38281314       0.79041547 
Ni       5.60412399       8.63545673       6.52607530       0.00872400       0.07032800       0.09324900       2.74730651       0.93916458       2.27505917       0.20142794      -0.72292141       0.34481552 
Ni       8.57123569       3.95730890       5.65050640      -0.09717700       0.06892700       0.01710400       2.37049081       0.85015847       1.49076411      -0.25375556       0.32066130       0.52132326 
Ni       9.03314314       6.16253546       6.80136505       0.07713800       0.03706600      -0.01545100      -1.64611030      -3.05401978       5.48774351      -0.60076870       0.30645029      -0.17783094 
Ni       8.00178925       8.52255475       6.51716660      -0.09340200      -0.12078900      -0.02597700       2.84766496       1.67887654      -1.23297985      -0.16543036      -0.39911561      -0.22013012 
Ni       4.94360553       4.18164758       7.14664912      -0.02119200      -0.12588400       0.05554600      -1.08353302      -3.51442803       0.83897167      -1.37357815      -0.97139395      -0.08685104 
Ni       4.82642041       6.37378459       7.17417277       0.04119100       0.05217700       0.02017900       0.33913803       2.36391359      -3.97735203       0.58107919       0.83792780       0.07503476 
Ni       6.96781078       4.86806734       7.17518795      -0.01654600      -0.02484500       0.00511100      -2.03990092       1.69085124      -0.45092142       1.14613262       0.49143292      -0.13742246 
Ni       7.04959071       7.02765748       8.01713961       0.00318300       0.07397900       0.06612500       1.42139418       0.36821907       0.12843159      -0.18779959      -0.17817545      -0.30294897 
Ni       5.74777427       5.21375102       9.25702306      -0.00042700       0.02679400      -0.12180600      -0.91265789       0.35333860       0.35983609       0.03540393       0.30140982      -0.93065178 
Ni       5.32848948       5.05806548       4.79452498      -0.08227100      -0.01105900      -0.04816600       2.62655235       3.04332558       0.58508971      -0.40251853      -0.15911989       0.42823921 
Ni       4.52767949       7.36028571       4.88666430      -0.03799100      -0.06390300      -0.00949800       2.98733463      -4.50894852      -1.05428939       0.65099551      -0.47498495       0.09115340 
Ni       7.48863324       4.62105501       3.75793503       0.01584300       0.02788800       0.00540500      -4.42617973      -0.30833119      -1.65606351      -0.72485929       0.53589389       0.01215044 
Ni       6.30254788       8.92446565       4.35772738       0.09781500       0.05654500      -0.05191500      -6.35977818       0.68153154       0.85245456       0.39705535      -0.91922579      -0.10633861 
Ni       6.23560022       6.62315412       3.12690442      -0.00146400      -0.02344600       0.10544600      -0.28643745      -0.46108017      -3.01239443      -0.37136176       0.09946766       0.16058982 
19
Lattice="10.0 0.0 0.0 0.0 10.0 0.0 0.0 0.0 10.0" Properties=species:S:1:pos:R:3:force:R:3:momenta:R:3:forces:R:3 energy=-12.022896736369441 pbc="F F F"
Ni       3.93733849       3.15655310       5.16284069       0.10269700       0.13483100       0.03424100       1.96459217      -0.54085007      -2.93960498      -0.22704339      -0.37389210       0.37743784 
Ni       3.24420607       5.42312791       5.86472647      -0.07016000      -0.01812900      -0.07052500      -1.14042180       1.35297677       2.48408246      -1.21444572       0.31182051       0.43106116 
Ni       3.35842372       7.85393677       6.68437621       0.09894900      -0.06706800      -0.00966300       1.52031540      -1.54623142      -1.90580360      -0.59293783       0.26901374       0.43427164 
Ni       6.50147169       3.08668398       5.50882737      -0.01026200      -0.08710600       0.02090800       2.98249730      -4.16562126       0.68552065      -0.34675892      -0.25828059      -0.23379026 
Ni       6.95001036       6.94403808       5.37966908      -0.01006200      -0.00088200      -0.00082600      -4.76244741       0.62175280       1.67941540      -0.38527336      -0.62204044      -0.31483882 
Ni       5.98526099       8.51059712       6.57659405       0.00872400       0.07032800       0.09324900      -0.29427542       0.97922729      -4.54336177      -0.87159346       0.75698519      -0.40065472 
Ni       8.50870175       4.25586243       5.77627781      -0.09717700       0.06892700       0.01710400      -0.91553399       1.20131357      -2.30916141       0.88834646      -0.31447714      -0.99304038 
Ni       8.98811309       6.06129329       7.31865870       0.07713800       0.03706600      -0.01545100       1.72733753       1.66040873       0.12678285      -0.03020244       0.17415057      -0.69382303 
Ni       8.44452909       8.41832437       6.48235194      -0.09340200      -0.12078900      -0.02597700       3.09364597      -2.28924871       2.05570566      -0.16474051      -0.37216888       0.44601288 
Ni       4.62031452       4.01110543       7.33649770      -0.02119200      -0.12588400       0.05554600      -0.98401319       1.40432174      -1.12553821       0.00455635      -0.15401981      -0.81937633 
Ni       5.06890691       6.32739558       7.05344390       0.04119100       0.05217700       0.02017900      -2.89257081       0.86964894       0.90235550      -0.97102199       1.45878930      -0.67898044 
Ni       6.78694461       4.91741567       6.92050604      -0.01654600      -0.02484500       0.00511100       1.35777289      -1.90623315       0.05280053       0.55569365       0.27863694       1.15413813 
Ni       7.09362905       7.13668204       7.99934238       0.00318300       0.07397900       0.06612500       0.85291929      -0.77987114       0.76122061       0.08252539      -0.41175684      -0.19149906 
Ni       5.66398389       5.40058642       8.89736451      -0.00042700       0.02679400      -0.12180600       0.24825172       0.53182262       0.54082324       0.37597143      -0.54798159       1.79555264 
Ni       5.23520337       4.96538534       5.19697498      -0.08227100      -0.01105900      -0.04816600      -1.42237015      -1.09107291       0.26055801       1.39450405       0.39457828      -1.25066119 
Ni       4.52773473       7.26516932       4.90523102      -0.03799100      -0.06390300      -0.00949800      -3.79562088       1.15341039       2.21901707       0.78086345      -0.28416227      -0.15356443 
Ni       7.10851799       4.63776990       3.67407432       0.01584300       0.02788800       0.00540500       0.91335353      -0.04441904       1.31416184       0.18167586       0.13952955       0.67698165 
Ni       5.93679263       8.90679584       4.11409501       0.09781500       0.05654500      -0.05191500       2.79032837       0.95755927      -3.48990422       0.46138817      -0.37527957       0.14032412 
Ni       6.03992744       6.72125539       3.14815535      -0.00146400      -0.02344600       0.10544600      -1.24376052       1.63110558       3.23093035       0.07849281      -0.06944487       0.27444859 
19
Lattice="10.0 0.0 0.0 0.0 10.0 0.0 0.0 0.0 10.0" Properties=species:S:1:pos:R:3:force:R:3:momenta:R:3:forces:R:3 energy=-11.61366819611366 pbc="F F F"
Ni       4.18072348       2.86901765       5.06170101       0.10269700       0.13483100       0.03424100       2.59493377      -2.06623647       1.45450222       0.36616161      -0.11719664       0.27642299 
Ni       2.89210667       5.75702644       6.16108001      -0.07016000      -0.01812900      -0.07052500      -0.07505114       3.82836002       0.54141654       0.57816975       0.37205007      -0.21219303 
Ni       2.82491374       8.09874539       6.84569129       0.09894900      -0.06706800      -0.00966300      -2.75210810       0.68488599       0.37276378       0.86859525      -0.66128217      -0.44955452 
Ni       6.65364021       2.95052911       5.43374106      -0.01026200      -0.08710600       0.02090800      -0.98164766       4.34262383      -1.07728973      -0.34022533       0.85638167       0.02074631 
Ni       6.74250833       6.79915494       5.63159039      -0.01006200      -0.00088200      -0.00082600       3.03283979       2.33968252       0.84935571      -0.08793634       0.70038384      -0.91385612 
Ni       5.50484502       9.00602277       6.13928103       0.00872400       0.07032800       0.09324900      -3.54772203       1.29110910      -1.34440516       0.14425523      -0.37197261       0.15137016 
Ni       8.84640389       4.30671742       5.44707701      -0.09717700       0.06892700       0.01710400       2.59949370      -1.10694360       1.41860625      -0.61315981      -0.79447783      -0.05938276 
Ni       9.18228974       5.90283686       6.97686459       0.07713800       0.03706600      -0.01545100      -0.86001320      -2.93057842      -2.69213735      -0.75902170       0.96709634       0.36838347 
Ni       8.59517672       8.22285110       6.81979584      -0.09340200      -0.12078900      -0.02597700      -0.18219880       0.90630621       1.12998679       0.16515925      -0.27266767      -0.11401438 
Ni       4.58439073       4.17803752       7.02398547      -0.02119200      -0.12588400       0.05554600       0.57905488       0.36737902      -0.10939374      -0.04219992      -0.36409090       0.86204524 
Ni       4.91571844       6.50493446       7.18298160       0.04119100       0.05217700       0.02017900      -1.48508296      -0.13341831       0.32497894      -0.49697320      -0.11662312      -0.29980440 
Ni       6.89802400       4.84750866       7.17749816      -0.01654600      -0.02484500       0.00511100       0.07503799      -1.27764639      -1.34823801      -0.07133052      -0.28796893      -0.96453765 
Ni       7.01668964       6.96052134       7.89486460       0.00318300       0.07397900       0.06612500       0.58390319      -0.21814389       1.12311707       0.76238845       0.14056139       1.07248140 
Ni       5.80956398       5.25218952       9.18991151      -0.00042700       0.02679400      -0.12180600       0.44817702      -0.72326553      -1.20634256      -0.23193498       0.25366192      -0.77914097 
Ni       5.22733080       4.99315608       5.08066945      -0.08227100      -0.01105900      -0.04816600      -3.02071892      -0.30218667       0.15963488       0.13190402       0.50391583      -0.35806855 
Ni       4.50652029       7.34944507       4.94469607      -0.03799100      -0.06390300      -0.00949800       0.14122487       0.38011531       2.07647228       0.18424024      -0.48601333       0.19066734 
Ni       7.22710876       4.79790008       3.85362447       0.01584300       0.02788800       0.00540500       1.16010328       0.64543598      -0.89119198       0.45225590      -0.63162197       0.37570904 
Ni       6.42013740       8.73467084       3.94280051       0.09781500       0.05654500      -0.05191500       1.63574150      -3.79483335       1.50537700      -0.49017016      -0.76272579       0.39298247 
Ni       5.97191855       6.46871274       3.19215346      -0.00146400      -0.02344600       0.10544600       0.05403282      -2.23264532      -2.28721294      -0.52017776       1.07258990       0.43974397 
19
Lattice="10.0 0.0 0.0 0.0 10.0 0.0 0.0 0.0 10.0" Properties=species:S:1:pos:R:3:force:R:3:momenta:R:3:forces:R:3 energy=-12.009619423887097 pbc="F F F"
Ni       4.52960503       2.45896666       5.41686829       0.10269700       0.13483100       0.03424100      -0.62275283      -2.46595178       2.48291526      -0.79664762      -0.05525597      -0.02200135 
Ni       2.90200171       5.90242956       5.95849094      -0.07016000      -0.01812900      -0.07052500      -0.12857650      -2.51841505      -1.98732864       0.45635114       0.24470963       0.21352376 
Ni       3.16505124       8.21456353       6.72192800       0.09894900      -0.06706800      -0.00966300       5.91032321       1.16238547      -1.06547905      -0.23995930      -0.69592615       0.16938394 
Ni       6.51810857       3.37408730       5.24686530      -0.01026200      -0.08710600       0.02090800       0.35119289      -3.04696189      -1.14559420       0.13423955      -0.27398227       0.05466267 
Ni       6.94209431       7.09797988       6.03298598      -0.01006200      -0.00088200      -0.00082600      -1.61676047       2.92871359       4.51565526      -0.59816994       2.08059136      -0.91857126 
Ni       5.06528095       9.17548382       6.09287800       0.00872400       0.07032800       0.09324900      -1.51046624       0.82893011       0.24103418       0.98867180       0.24050723      -0.09296696 
Ni       8.68968111       3.70317068       5.54110566      -0.09717700       0.06892700       0.01710400      -2.62823622      -1.83142309       1.34458200       0.38004339       1.04733760       0.18151249 
Ni       8.82896061       6.05946111       6.79389721       0.07713800       0.03706600      -0.01545100       2.54400335      -1.33213277      -1.70601998       1.56502073      -0.78290919      -0.17129870 
Ni       8.71615595       8.23641995       6.93985997      -0.09340200      -0.12078900      -0.02597700       1.25012152       2.44393460       1.06618357      -0.10511831       0.45289152       0.21712398 
Ni       4.72472052       4.11312132       7.09162191      -0.02119200      -0.12588400       0.05554600       0.76612017      -0.56191232      -3.00183224      -0.26327274       0.02891690      -0.57286183 
Ni       4.99338783       6.55149347       7.19305382       0.04119100       0.05217700       0.02017900       1.30071666       1.08627622      -1.89429130      -0.69738174      -0.02090127      -0.55754220 
Ni       6.86136432       5.07931160       6.84485457      -0.01654600      -0.02484500       0.00511100      -1.94939724       1.69020012      -0.16060674      -0.58903383      -1.84034418       0.18248494 
Ni       7.29331491       6.79452717       8.32432592       0.00318300       0.07397900       0.06612500       0.93738347      -0.12413846       2.50278848      -0.20721279       0.37211664      -0.21145487 
Ni       5.71509368       5.16418470       8.83765898      -0.00042700       0.02679400      -0.12180600      -0.63408889      -1.44281497       1.65013018       0.12417029      -0.11417559       1.12224290 
Ni       4.99601387       5.05515709       5.00405019      -0.08227100      -0.01105900      -0.04816600      -0.80209205      -2.31824589       0.91633265      -0.06327435      -0.34608820       0.23817403 
Ni       4.54882295       7.32081392       4.96588110      -0.03799100      -0.06390300      -0.00949800      -0.78228215       1.85447867      -1.12760537      -0.29884160      -0.34381395       0.22048522 
Ni       7.50967848       4.90939008       3.78337130       0.01584300       0.02788800       0.00540500       1.09551576       2.25904521      -1.56764407      -0.22276071      -0.22112699       0.06900402 
Ni       6.28763173       8.44308801       4.04084088       0.09781500       0.05654500      -0.05191500      -1.85351932       3.68217402      -0.95892852       0.17795450       0.16670315       0.15907205 
Ni       5.71304262       6.34632815       3.16946951      -0.00146400      -0.02344600       0.10544600      -1.62720511      -2.29414182      -0.10429147       0.25522152       0.06074974      -0.28097284 
19
Lattice="10.0 0.0 0.0 0.0 10.0 0.0 0.0 0.0 10.0" Properties=species:S:1:pos:R:3:force:R:3:momenta:R:3:forces:R:3 energy=-12.150291116431816 pbc="F F F"
Ni       4.18914573       2.07484026       5.65164235       0.10269700       0.13483100       0.03424100      -1.30024839      -1.34260021       0.48443591       0.40803818       0.31494763      -0.06408128 
Ni       3.07194971       5.79288925       5.87703861      -0.07016000      -0.01812900      -0.07052500      -0.19006706       0.33397669       0.40353608      -0.31499326       0.01216611      -0.09730088 
Ni       3.27881099       8.02737996       6.82401481       0.09894900      -0.06706800      -0.00966300      -1.03525879      -1.30973997       0.18564951       0.30448316      -0.12259558      -0.34933856 
Ni       6.36950496       3.05545585       5.11299592      -0.01026200      -0.08710600       0.02090800      -0.47699571       0.30079261       0.64401267       0.43962699       0.27001551       0.43395332 
Ni       6.90585173       8.24446380       6.38584965      -0.01006200      -0.00088200      -0.00082600       2.85994914       3.72443288       1.21157621       0.39449083      -0.40238940      -0.41912096 
Ni       5.33937572       9.60066717       5.93222807       0.00872400       0.07032800       0.09324900      -4.51228550       5.62135019      -1.78900840      -1.45289962       0.17116514      -0.33828208 
Ni       8.56190006       4.09994982       5.73071155      -0.09717700       0.06892700       0.01710400      -0.63577665       2.56918950      -1.49235446       0.34010922      -0.93547185      -0.97458730 
Ni       9.06882483       6.09560706       6.61685485       0.07713800       0.03706600      -0.01545100      -0.98664465       3.54104016       0.66464422      -0.07896300       0.25724572       0.12478153 
Ni       8.92864999       8.27412079       7.28331584      -0.09340200      -0.12078900      -0.02597700       2.36909193      -2.67207688       3.16750173       0.37787455       0.02067754       0.28534993 
Ni       4.53650813       4.00656922       7.10952026      -0.02119200      -0.12588400       0.05554600      -1.59469719      -0.92119699       0.95384710       0.18282483      -0.67112886      -0.67423490 
Ni       4.90421212       6.15978583       7.09108789       0.04119100       0.05217700       0.02017900       1.25359024      -3.63918945       1.91081875       0.22778351       1.26149425       0.26876905 
Ni       6.83925746       4.87579704       6.87801674      -0.01654600      -0.02484500       0.00511100       0.22619933      -3.01839631       0.78712717      -0.75488564      -0.76535468       0.10443645 
Ni       7.35574952       6.68213962       8.06559365       0.00318300       0.07397900       0.06612500      -0.19050903      -0.95528790      -4.48929436      -0.29798298       0.37794296       0.44861239 
Ni       5.69278706       5.10619124       8.97463051      -0.00042700       0.02679400      -0.12180600       0.76031320       0.86985436      -2.30365088       0.27918803      -0.04386647      -0.15028620 
Ni       5.01023501       4.87220318       4.78137225      -0.08227100      -0.01105900      -0.04816600       1.22336791      -0.07789349      -1.28053194      -0.02390994       0.22056453       0.60136510 
Ni       4.64865595       7.23296007       4.93224707      -0.03799100      -0.06390300      -0.00949800       2.43175128      -0.15176682       1.85948243       0.06460693       0.42718109       0.54798192 
Ni       7.48237164       4.80502716       3.77981984       0.01584300       0.02788800       0.00540500      -2.55372644      -3.42886583       1.81942301      -0.80250403      -0.31977047       0.12643280 
Ni       6.13094380       8.72428014       3.94647334       0.09781500       0.05654500      -0.05191500       0.64062945      -0.81335780      -1.45721046       0.36501016      -0.39037767       0.01684094 
Ni       5.68527596       6.26965052       3.02659432      -0.00146400      -0.02344600       0.10544600       1.71131693       1.36973526      -1.28000427       0.34210208       0.31755452       0.10870874 
19
Lattice="10.0 0.0 0.0 0.0 10.0 0.0 0.0 0.0 10.0" Properties=species:S:1:pos:R:3:force:R:3:momenta:R:3:forces:R:3 energy=-11.782300793034196 pbc="F F F"
Ni       4.22067036       1.89266135       5.62238890       0.10269700       0.13483100       0.03424100       0.30544700      -2.43532535      -1.04377850      -0.39473461      -0.38653972       0.01493809 
Ni       3.08535685       5.80586998       5.82502303      -0.07016000      -0.01812900      -0.07052500      -0.20424247       0.00339727      -0.86093244      -0.30573428       0.34616156       0.24145604 
Ni       3.19304353       7.94522295       6.74363030       0.09894900      -0.06706800      -0.00966300      -0.78632315       1.48778512      -0.15323362       0.00252848       0.21747054       0.07092110 
Ni       6.28796464       2.78038245       5.45698910      -0.01026200      -0.08710600       0.02090800      -1.06395292      -3.12069821       0.53601463       0.46489861       0.84761509      -0.48523747 
Ni       7.22973965       8.96754511       6.18791313      -0.01006200      -0.00088200      -0.00082600       0.96442537       3.22220243      -1.57235364      -0.15006963      -0.57798581       0.47280115 
Ni       4.68498859       9.75075111       5.45727731       0.00872400       0.07032800       0.09324900      -0.96895602      -3.52193036      -3.14659975       0.57971288      -0.05687000       0.16472915 
Ni       8.65888110       4.12884594       5.30053995      -0.09717700       0.06892700       0.01710400      -1.71013756      -0.24845279      -2.10648516      -0.86166236       0.18488986       0.17400771 
Ni       9.10860627       6.20797635       6.38404696       0.07713800       0.03706600      -0.01545100       1.61147004       0.14204146      -0.95407838       0.17144866       0.19081306       0.59493633 
Ni       9.11076505       8.23356851       7.93051651      -0.09340200      -0.12078900      -0.02597700      -3.40647451      -0.90598940       1.79848507      -1.00861950      -0.52732458      -0.83433711 
Ni       4.55574939       3.84255890       6.83620636      -0.02119200      -0.12588400       0.05554600       0.76177463       1.37716758      -2.77652738      -0.54788280      -0.14810738       0.10831813 
Ni       4.85406372       6.15817312       7.26063908       0.04119100       0.05217700       0.02017900      -0.63403776      -2.41538094       2.46865383       0.19639744      -0.60927641       0.24327875 
Ni       6.71299161       4.40019878       7.05625243      -0.01654600      -0.02484500       0.00511100       1.43165346       2.25911149       2.19063154       0.68437345       1.03056345      -0.28321986 
Ni       7.07863138       6.82734740       7.81431359       0.00318300       0.07397900       0.06612500       0.24315742       1.40577823      -0.37961108       0.78345294      -0.29522421       0.08867004 
Ni       5.98970071       4.97131860       9.10891815      -0.00042700       0.02679400      -0.12180600       1.59239067      -0.54095224       1.60381038      -0.19631023       0.64858794      -0.21571605 
Ni       5.03542903       5.11436989       5.00322763      -0.08227100      -0.01105900      -0.04816600       0.65895112       1.68061125       2.77648092       0.96033019      -0.16793557      -0.56929591 
Ni       4.93592405       7.48405075       5.28238909      -0.03799100      -0.06390300      -0.00949800       0.62351521       1.99239881       0.44363813      -0.23777727      -0.81226768      -0.14863832 
Ni       6.82063151       4.36085193       3.54504551       0.01584300       0.02788800       0.00540500      -2.98617964      -2.27476629      -3.37574022       0.21626936      -0.17754480       0.39453034 
Ni       6.46168793       8.60790828       4.03327249       0.09781500       0.05654500      -0.05191500       3.14585828       1.97847723       1.99930125       0.04841881       0.66381552      -0.22583126 
Ni       5.97518503       6.52037658       3.15141799      -0.00146400      -0.02344600       0.10544600       0.42166084      -0.08547528       2.55232442      -0.40504015      -0.37084086       0.19368915 
19
Lattice="10.0 0.0 0.0 0.0 10.0 0.0 0.0 0.0 10.0" Properties=species:S:1:pos:R:3:force:R:3:momenta:R:3:forces:R:3 energy=-11.552543944693527 pbc="F F F"
Ni       4.18971271       1.44581113       5.61822496       0.10269700       0.13483100       0.03424100       0.90853866      -1.85436002       1.12869134       0.23592177      -0.06041485       0.09696690 
Ni       3.28833155       5.92781731       5.92762055      -0.07016000      -0.01812900      -0.07052500       2.11683433      -1.24271168       1.20269197      -0.89498418      -0.85668633      -0.23973642 
Ni       3.25919787       8.18332545       6.66492345       0.09894900      -0.06706800      -0.00966300       1.58325950       1.61169256      -0.70700558      -0.11065049       0.17465246       0.12617521 
Ni       6.32718123       3.01148032       5.41113500      -0.01026200      -0.08710600       0.02090800      -1.71102159      -0.13277172      -0.17612932      -0.57495580      -2.87145506       0.11337400 
Ni       7.29440314       9.26472043       6.42465313      -0.01006200      -0.00088200      -0.00082600      -2.29296421       3.29893370       0.00547677      -1.12734066       0.82611235      -1.23456913 