960
Lattice="16.98 0.0 0.0 0.0 12.65614475 0.0 0.0 0.0 51.27824862" Properties=species:S:1:pos:R:3:Z:I:1:forces:R:3 energy=-7802.1602096 stress="-0.00978369662651 0.000598548242154 -0.000280137654097 0.000598548242154 -0.0145361876448 -0.00145211206417 -0.000280137654097 -0.00145211206417 -0.0148477138483" pbc="T T T"
Fe       1.27652000       0.51075000      38.02988000       26      -0.18803200       0.55845000       0.01716100 
Fe      16.76609000       2.75982000      39.27261000       26       0.18156600      -1.04638200      -0.25130600 
Fe       1.32242000       4.76026000      39.08668000       26      -0.02466700       0.32617500      -0.14514000 
Fe      16.97138000       4.96509000      41.07415000       26      -1.50902900       0.88824000      -1.23778600 
Fe       1.12126000       0.65678000      40.28515000       26       0.29702600       0.03872300      -0.38668100 
Fe      16.82558000       1.28775000      42.07920000       26      -0.78226900       0.36733700       0.56558600 
Fe       1.22829000       3.07803000      41.33559000       26       0.34526900       0.39322200       0.31162600 
Fe      16.81580000       3.77010000      43.41089000       26       0.06152200       0.23639000      -0.39999500 
Fe       1.22714000       5.71261000      42.83023000       26       0.11829100      -0.05769200      -0.16419200 
Fe       1.22160000       1.94431000      44.01976000       26      -0.07636100       0.03077800      -0.17257900 
Fe      16.64679000      12.56102000      44.71531000       26       1.24924300       1.00648000      -0.06119800 
Fe      16.84534000       2.61566000      45.97589000       26      -0.77384100      -0.29813000      -0.51457200 
Fe       1.07922000       4.49382000      45.42476000       26       2.38928700       0.36524500      -1.68100400 
Fe      16.89594000       5.14970000      47.20015000       26      -1.05054100       0.37596500       0.28476600 
Fe       1.18377000       0.74471000      46.64923000       26       0.14128900       0.12301100      -1.48407200 
Fe      16.83971000       1.44886000      48.50434000       26      -0.30711500      -0.08455200      -1.12648000 
Fe       1.31936000       3.38157000      47.72438000       26      -0.51686900      -0.98068300       1.35493300 
Fe      16.81801000       3.92650000      49.75306000       26      -0.08877400      -0.40398000      -1.44250400 
Fe       1.27375000       5.83577000      49.01112000       26      -0.00450000      -0.32510300       0.63109000 
Fe       1.27114000       2.00498000      50.29394000       26      -0.02969400       0.23142800       0.42244000 
Fe      16.76341000       0.13991000      50.79384000       26       0.26771000      -0.74763200       1.66359600 
Fe       1.29031000       3.11449000      36.94523000       26      -0.55136100      -0.11697700      -0.19120800 
Fe       2.60376000       5.03659000      37.06034000       26       0.73533200       0.26295900       1.59022000 
Fe       1.30595000       5.66395000      35.39848000       26      -0.84986100       0.83013700      -0.69662400 
Fe       2.55792000       1.26615000      36.08159000       26      -0.21554100      -0.54657600       0.05238800 
Fe       1.21897000       1.95606000      34.16833000       26      -0.16682900      -0.29349300       0.20804700 
Fe       2.70077000       3.82172000      34.78233000       26      -0.40281900      -0.49440400      -0.24088800 
Fe       1.16963000       4.42395000      32.90891000       26       0.52734000      -0.29776600      -0.31545300 
Fe       2.51497000      12.56265000      33.48920000       26       0.26933700       0.74974400       0.75051600 
Fe       2.58422000       2.60720000      32.22120000       26       0.40481600      -0.47699100       0.36703000 
Fe       1.26395000       0.64802000      31.61045000       26       0.37319400       0.23279400       0.14724700 
Fe       1.07266000       3.18383000      30.30015000       26       1.39839100       0.13486500       0.38896100 
Fe       2.59200000       5.07403000      30.96384000       26      -0.06881200      -0.00999700       0.21580900 
Fe       1.14643000       5.71526000      29.12942000       26       1.14956900      -0.08379600      -0.73408300 
Fe       2.81603000       1.41579000      29.75093000       26      -1.62098500      -0.52964400       0.47131500 
Fe       1.32312000       1.85881000      27.96107000       26      -0.42612100       0.00695300      -0.84262500 
Fe       2.63241000       3.70318000      28.54038000       26       0.06765600       1.41251800      -0.34854100 
Fe       1.24842000       4.47880000      26.56931000       26       0.22402900       0.12694300       0.10407800 
Fe       2.74654000       0.08867000      27.22283000       26      -0.54848900      -0.64582100      -0.04686000 
Fe       2.61874000       2.62607000      26.04969000       26       0.59022900      -0.11557900      -0.54475600 
Fe      16.72947000      12.56989000      12.33602000       26       0.03853000      -0.02056900       0.63534000 
Fe       1.15236000       4.52912000      13.57697000       26       0.79546600      -0.18811200      -0.13618200 
Fe       2.65150000       2.41384000      13.34159000       26      -0.09427200      -0.55542000       0.44900200 
Fe       1.33260000       2.12542000      15.39175000       26      -0.63171800      -0.66458000      -0.92262800 
Fe       2.57647000       0.12749000      14.46503000       26      -0.13815100       0.19704800       1.12754600 
Fe       1.19664000       5.85241000      16.45266000       26      -0.01163000      -0.24820100       0.02704600 
Fe       2.71537000       4.05184000      15.63757000       26       0.00485700      -0.15979900       0.23344900 
Fe       1.18633000       3.41987000      17.61699000       26       0.54373100      -0.41359100       0.31998400 
Fe       2.65578000       1.42265000      17.17765000       26       0.25882300       0.33682900      -0.23976700 
Fe       2.62902000       5.18841000      18.25849000       26      -0.26074600       0.15399400       0.88440300 
Fe       1.34269000       0.84273000      19.07243000       26      -0.63788500      -0.32704700      -0.92280400 
Fe       1.21249000       4.59271000      20.22143000       26       0.32155600      -0.27129300       0.17826400 
Fe       2.77135000       2.76054000      19.57422000       26      -1.21271800      -0.38707700      -0.24505400 
Fe       1.27176000       2.05244000      21.49599000       26      -0.01305700       0.74931800       0.47801800 
Fe       2.51769000       0.19311000      20.93194000       26       1.89775600      -0.73326100       0.21021100 
Fe       1.20703000       5.87368000      22.84476000       26       0.16182200      -0.57471000      -0.14026200 
Fe       2.68327000       4.02518000      22.05461000       26      -0.79925200      -0.89511400       0.17953700 
Fe       1.27153000       3.29600000      24.09917000       26      -0.64238900      -0.03390000      -0.02602900 
Fe       2.60063000       1.42394000      23.47143000       26       0.26204900      -0.44522100      -1.26336000 
Fe       2.64465000       5.20769000      24.71979000       26       0.15441100       0.18233300       0.05631800 
Fe       1.44159000       0.67736000      25.35357000       26      -1.28278000       0.16518700       0.28102700 
Fe      16.72806000       3.73290000      11.17715000       26       0.01365300      -0.07334000       0.28244300 
Fe       1.18512000       1.74365000      11.55977000       26      -0.52555800       0.63656200       0.84135100 
Fe      16.70561000       1.12001000       9.72480000       26       0.45615500       0.63199000       0.18141400 
Fe       1.16378000       5.57229000      10.31200000       26      -0.12611500       0.10528600       0.76153800 
Fe      16.78536000       4.95513000       8.35892000       26      -0.30224600      -0.16417500       1.72208900 
Fe       1.15212000       3.14193000       9.30781000       26       0.08916600      -0.72245700      -1.23978400 
Fe      16.75630000       2.30815000       7.31244000       26       0.04352700       1.19544300      -0.53443600 
Fe       1.30156000       0.48566000       7.75388000       26      -0.96280000       0.92643400       1.20586400 
Fe       1.16112000       4.34051000       6.52658000       26       0.72154000      -0.40991000       0.60972200 
Fe      16.67043000      12.63232000       6.07452000       26       0.06178800      -0.53963200      -0.78436600 
Fe      16.70901000       3.78488000       4.72297000       26       0.80961500      -0.49317600      -0.26896600 
Fe       1.15071000       1.82544000       5.31608000       26       0.19761800       0.60765000       0.49776400 
Fe      16.71716000       1.34631000       3.51814000       26       0.25649800      -0.31546100      -0.88302900 
Fe       1.27396000       5.60231000       4.04920000       26      -0.24019100       0.45087300       0.83631200 
Fe      16.78225000       4.99639000       2.17866000       26       0.59161900       1.45813800       0.24683500 
Fe       1.30210000       3.14645000       2.74630000       26       0.10928800       0.60953600       1.19779200 
Fe      16.83726000       2.79963000       0.99633000       26       0.08215600      -2.49086600      -1.47963400 
Fe       1.20557000       0.73312000       1.60020000       26      -0.30589700      -0.16997600      -0.50923100 
Fe       1.30113000       4.50996000       0.12594000       26       0.38151900      -0.12926700       2.05037200 
Fe       1.12586000       7.08552000      37.73091000       26       0.68541700      -0.84667400       1.74157200 
Fe      16.72592000       8.89346000      39.06807000       26       0.26764400      -0.10500200      -0.05579600 
Fe       1.19292000      10.92089000      39.15435000       26       0.35492000       0.60800000       0.31602300 
Fe      16.71284000      11.52013000      40.96606000       26       0.01223000      -0.73786800      -0.84729200 
Fe       1.29124000       7.03706000      40.20623000       26      -0.23208800      -0.26054400      -0.95166200 
Fe      16.76965000       7.54806000      42.05983000       26       0.54216500       0.53200200       0.39259800 
Fe       1.12544000       9.48028000      41.20113000       26       0.27054100      -0.42992300       0.77236000 
Fe      16.68400000      10.18671000      43.32592000       26       0.65314500      -0.91451800       0.44168300 
Fe       1.11543000      12.05985000      42.80614000       26       0.36758700       0.19583500       0.09928100 
Fe       1.14867000       8.24442000      44.01186000       26       0.16877600       0.79285900      -0.80966800 
Fe      16.89359000       6.39477000      44.64577000       26      -1.15326300      -0.11591600       0.32809600 
Fe      16.85193000       8.87735000      45.94622000       26      -0.80767100       0.55821900      -0.44810800 
Fe       1.24152000      10.79935000      45.30052000       26      -0.41207400       0.10046000      -0.86976000 
Fe      16.79299000      11.43740000      47.10984000       26      -0.04205800       0.37703000       0.49383600 
Fe       1.18684000       7.12854000      46.57837000       26       1.11627100      -0.97649500      -0.13397000 
Fe      16.89356000       7.68835000      48.52810000       26      -0.65986200       0.13803600      -0.63285200 
Fe       1.30813000       9.66791000      47.78959000       26      -0.24136100      -0.38764000       0.14528500 
Fe      16.84793000      10.20706000      49.72980000       26       0.16491300       0.36378100      -0.70833200 
Fe       1.24543000      12.19107000      49.02305000       26       0.32609700      -0.76829700       0.04881700 
Fe       1.32995000       8.24093000      50.34908000       26      -0.43580400       0.98824500       0.10732800 
Fe      16.86966000       6.29033000      51.05747000       26      -0.58013800       1.26659600      -1.18440900 
Fe       1.17900000       9.49566000      36.89345000       26      -0.42202700       0.21730700      -0.44586700 
Fe       2.56887000      11.34378000      37.24370000       26       0.22449200       0.45916100       0.60088000 
Fe       1.08663000      12.02386000      35.47522000       26       0.65813800       0.10733700      -0.55550000 
Fe       2.57580000       7.69850000      36.00585000       26       0.60190300      -0.67457100      -0.24473000 
Fe       1.16037000       8.26720000      34.18119000       26       0.42304000      -0.06969600      -0.77012900 
Fe       2.40940000      10.13896000      34.84284000       26       1.22977400      -0.20091700      -0.42770300 
Fe       0.97074000      10.81256000      32.86467000       26       1.94875900      -0.91378900       0.70469400 
Fe       2.57468000       6.33463000      33.46878000       26       0.94146800       0.32434400       0.43900400 
Fe       2.59101000       8.89302000      32.23250000       26       0.06621400       0.12105400       0.94840800 
Fe       1.22071000       6.98009000      31.58215000       26      -0.02105100       0.26196100      -0.13873900 
Fe       1.22378000       9.65280000      30.38851000       26       0.14797700      -1.26660700      -0.39808500 
Fe       2.72040000      11.45638000      31.14059000       26      -0.78842200      -0.34631900      -0.74416800 
Fe       1.22762000      12.06262000      29.12971000       26       1.15766000      -0.38528600      -0.25226700 
Fe       2.55517000       7.66856000      29.70639000       26       0.45502300      -0.36840400       0.48841200 
Fe       1.24121000       8.30942000      27.84484000       26      -0.01031800      -0.43007700      -0.01737200 
Fe       2.71997000      10.12477000      28.48238000       26      -0.46818800       0.54199300       0.57902500 
Fe       1.37902000      10.74589000      26.63834000       26      -0.66300500       1.06137000      -0.06127900 
Fe       2.74554000       6.34223000      27.23255000       26      -1.24160900       0.52656900       0.03707100 
Fe       2.65153000       8.92441000      25.97218000       26       0.65175700      -0.38396800       0.59037000 
Fe      16.86398000       6.31591000      12.32569000       26       0.24915600      -0.25383100       0.20044000 
Fe       1.22717000      10.80277000      13.23591000       26      -0.24297500       0.70133200       0.32747200 
Fe       2.59699000       8.87501000      13.51861000       26       0.03122400      -0.96003200      -0.15430000 
Fe       1.21149000       8.19395000      15.25546000       26      -0.10392100       1.06953300       0.09157300 
Fe       2.62678000       6.37282000      14.45676000       26       0.23010900       0.12785700      -0.21876000 
Fe       1.20371000      12.29484000      16.55329000       26       0.38069300      -0.74820300      -0.35770700 
Fe       2.66789000      10.25937000      15.69387000       26      -0.70860400      -0.05267400       0.74255300 
Fe       1.16210000       9.60460000      17.71349000       26       0.59734400       0.44699600      -0.12118200 
Fe       2.49435000       7.71664000      17.15374000       26       0.68874400       0.33583000       0.31041800 
Fe       2.66457000      11.61401000      18.42133000       26      -0.25157900      -0.79156700      -0.18463900 
Fe       1.16466000       7.03370000      19.01667000       26       0.13614000       0.85563800       0.01020000 
Fe       1.16797000      10.93875000      20.37472000       26       0.61637600      -0.54348300      -0.46747600 
Fe       2.61053000       9.16318000      19.71169000       26      -0.21182800      -1.31419100      -0.33979500 
Fe       1.13780000       8.23482000      21.50639000       26       0.23378200       1.37135200       0.67588800 
Fe       2.57868000       6.48598000      20.97662000       26       0.66127200      -0.39298900      -0.64412900 
Fe       1.15755000      12.22034000      22.90554000       26       1.11866200      -0.90405800      -0.34943700 
Fe       2.59482000      10.18871000      22.18949000       26       0.09756000       0.10351500       0.01722100 
Fe       1.26312000       9.38812000      24.18672000       26      -0.59635900       2.23147600      -1.36395500 
Fe       2.64144000       7.83136000      23.41596000       26       0.40594300      -2.14449100       0.11741800 
Fe       2.69898000      11.34862000      24.64959000       26      -0.44758100       0.62680200       0.56026100 
Fe       1.23039000       7.08102000      25.36191000       26       0.17305200      -0.56645500      -0.26958800 
Fe      16.70705000      10.14704000      11.31809000       26       0.21423000      -0.34075100      -1.28736800 
Fe       1.21281000       8.19224000      11.56304000       26       0.31568800      -0.09306900       0.97908300 
Fe      16.83319000       7.46438000       9.77492000       26      -0.38522700       0.67133800       0.31541400 
Fe       1.08667000      12.01051000      10.44857000       26       0.94440100      -0.60021500       0.01845800 
Fe      16.80906000      11.47109000       8.52439000       26      -0.85827900      -1.82211800       0.13536900 
Fe       1.22301000       9.48257000       9.28882000       26      -0.17919800      -0.44194500      -0.50901000 
Fe      16.84320000       8.78371000       7.31208000       26      -0.65560300       0.00043600       0.11404500 
Fe       1.18095000       6.85562000       7.96190000       26       0.80224800       0.30653000      -0.80518700 
Fe       1.09892000      10.63530000       6.57444000       26       0.46121100       0.70762200       0.17606800 
Fe      16.77726000       6.22056000       5.99166000       26       0.05929100       0.89807100      -0.07566500 
Fe      16.58859000      10.07880000       4.69910000       26       1.00490800       0.24462500       0.56364300 
Fe       1.22780000       8.23816000       5.38530000       26      -0.18600400      -0.66688300      -0.33012900 
Fe      16.68563000       7.43256000       3.46720000       26       0.74185700       1.19963200       0.31116200 
Fe       1.09291000      12.05400000       4.06327000       26       0.17284100      -0.02649100       0.61431900 
Fe      16.61896000      11.53740000       2.32879000       26       0.77802100      -0.95450900      -1.28343000 
Fe       1.20464000       9.51868000       2.92404000       26      -0.61380400      -0.42736900      -0.61287300 
Fe      16.83964000       8.85871000       0.91544000       26       0.04135100       0.11813400       0.58262100 
Fe       1.29716000       6.82945000       1.66882000       26      -0.38216300       1.55423500      -0.37222700 
Fe       1.11821000      10.85903000       0.36311000       26       0.70435300      -0.25681500      -0.26318600 
Fe       3.94001000       0.65984000      37.86288000       26       0.51467900      -0.28288100       0.60805500 
Fe       2.62060000       2.36871000      39.21670000       26      -0.26595000       0.64416000      -0.16822300 
Fe       3.97222000       4.52153000      39.03550000       26      -0.38729800       0.74012800      -0.54685800 
Fe       2.69877000       5.11737000      40.98768000       26      -0.69511500       0.04288800      -0.76638800 
Fe       4.13190000       0.77727000      40.23435000       26      -0.08681200      -0.79232200      -0.56108600 
Fe       2.63888000       1.32302000      42.00650000       26      -0.04212900      -0.07479500       0.74836600 
Fe       4.02755000       3.22629000      41.24255000       26       0.03141300      -0.66948800       0.75715200 
Fe       2.65054000       3.82558000      43.24927000       26      -0.65794000      -0.44757600       1.01478700 
Fe       3.91144000       5.77591000      42.83323000       26       1.23308900      -0.45855800      -0.90900900 
Fe       4.01746000       1.98595000      44.03891000       26      -0.01403300       0.04116200      -1.08808300 
Fe       2.60389000       0.16095000      44.54314000       26      -0.24605400      -0.80232400       1.05785000 
Fe       2.61996000       2.66764000      45.91296000       26      -0.13347100      -0.70756200      -0.60315000 
Fe       4.08261000       4.35456000      45.17314000       26      -1.31218300       1.71111600       0.32193800 
Fe       2.83233000       5.18778000      47.32752000       26      -1.21294000       0.38178700      -1.74704900 
Fe       4.09034000       0.71784000      46.47493000       26      -0.13356300       0.43429200      -0.21847300 
Fe       2.66757000       1.42566000      48.35026000       26       0.16874100      -0.48880200       0.72444500 
Fe       4.05249000       3.22613000      47.67807000       26       0.48986900       0.17599800       0.83108400 
Fe       2.65915000       3.89439000      49.65208000       26       0.39211000       0.09672400      -0.29680200 
Fe       4.08016000       5.84271000      49.17221000       26       0.40988500      -0.25139700      -1.14516300 
Fe       4.01486000       2.04821000      50.31657000       26       0.49767900      -0.73308100      -0.58220200 
Fe       2.60859000       0.08913000      50.94892000       26       0.27554200      -0.04361700      -0.06755700 
Fe       4.03493000       3.04916000      36.73337000       26       0.09190000       0.38662000       0.26695300 
Fe       5.42892000       5.01822000      37.17480000       26      -0.13092900       0.27318700       0.94471900 
Fe       4.14727000       5.71726000      35.37289000       26      -1.16692700       0.38922100      -0.48222800 
Fe       5.46453000       1.25615000      35.94123000       26      -0.81923100      -0.18295800       0.81896200 
Fe       3.85697000       1.72943000      34.28752000       26       1.20343200       1.22680800      -1.46750300 
Fe       5.41670000       3.79049000      34.75479000       26       0.07333700      -0.38859800       0.08725900 
Fe       4.04393000       4.49221000      32.79013000       26       0.07968300      -0.10960100       1.06379800 
Fe       5.45981000       0.08572000      33.39425000       26      -0.42152200      -0.76690000       0.94645500 
Fe       5.53577000       2.60128000      32.41749000       26      -0.63970500       0.10733200      -1.02535200 
Fe       4.11469000       0.73350000      31.60204000       26      -0.22397100      -0.01212300       0.64672300 
Fe       4.09017000       3.21724000      30.41905000       26       0.52777200       0.37460000      -0.18887700 
Fe       5.58014000       5.06737000      31.08537000       26      -0.81196500       0.32583000      -0.80601600 
Fe       3.94435000       5.69950000      29.12430000       26       1.11443300       0.09354100       0.44463900 
Fe       5.54905000       1.34609000      29.70007000       26      -0.39663400      -0.39646300       0.28230200 
Fe       4.13848000       1.90841000      27.81497000       26      -0.32141000       0.94008100       0.02023300 
Fe       5.52104000       3.89746000      28.40352000       26      -0.67488700      -0.56311500       0.91862400 
Fe       4.08786000       4.49653000      26.70453000       26      -0.52092200      -0.43939300      -1.52989900 
Fe       5.32775000       0.04743000      27.23016000       26       1.42385700      -0.23322500      -0.50891200 
Fe       5.40511000       2.61738000      25.80827000       26      -0.01316200       0.01879300       0.71290900 
Fe       2.63508000       0.01860000      12.27871000       26       0.00486000      -0.20766400      -0.36699500 
Fe       4.11574000       4.31060000      13.38108000       26      -0.39122000       0.43701800      -0.13843100 
Fe       5.48669000       2.14345000      13.30358000       26      -0.27879100      -0.14465600       0.63581100 
Fe       4.12941000       2.07733000      15.30495000       26      -0.56038000      -0.70564000      -0.60388300 
Fe       5.52457000      12.60698000      14.68036000       26      -0.38153200       0.67169700      -0.90581500 
Fe       3.98024000       5.93358000      16.53641000       26       0.57004500      -0.97735400      -0.61814200 
Fe       5.54400000       3.95404000      15.57485000       26      -0.39817400       0.14439200       0.54287500 
Fe       4.03574000       3.31665000      17.63911000       26       0.76939100       0.10553100      -0.25078500 
Fe       5.45837000       1.17854000      17.10066000       26       0.07629900       1.73877400      -0.19800200 
Fe       5.47154000       5.22355000      18.27514000       26       0.16647600      -0.10715700       0.43953100 
Fe       4.19015000       0.72775000      18.99096000       26      -1.37005500       0.11274200       0.39050000 
Fe       4.13517000       4.59313000      20.13980000       26      -0.84448100       0.23014700       0.31578400 
Fe       5.45178000       2.64523000      19.55827000       26       0.57803300       0.15495200      -0.24159400 
Fe       4.02811000       2.00011000      21.38328000       26      -0.11149400       0.31199900       1.26950500 
Fe       5.46886000       0.17254000      20.97115000       26       0.00249600      -0.71386800      -0.64592200 
Fe       4.09739000       5.69697000      22.79049000       26      -0.55348000       1.57954000       0.07648800 
Fe       5.39515000       3.91846000      22.02689000       26       0.28996900      -0.30828900       0.67987100 
Fe       3.84949000       3.27752000      23.98491000       26       1.84707000       0.14655500       0.24508200 
Fe       5.54234000       1.37055000      23.26854000       26      -1.48628700       0.05498100       1.09928500 
Fe       5.50775000       5.13484000      24.68739000       26      -1.07579500       0.32281700      -0.04163900 
Fe       4.09839000       0.77000000      25.12548000       26      -0.24138900      -0.36551900       1.26576700 
Fe       2.59226000       3.74545000      11.19199000       26      -0.04077300       0.29167800      -0.24317400 
Fe       4.05117000       1.86532000      11.48219000       26      -0.05048000      -0.18805700       0.49717200 
Fe       2.50204000       1.20049000       9.74403000       26       1.08802700       0.18048800      -0.42945200 
Fe       4.08447000       5.57712000      10.32085000       26      -0.27702400       0.46507500       0.82260600 
Fe       2.53165000       4.90379000       8.56669000       26       0.87705300       0.44846000      -1.01315800 
Fe       4.11413000       3.25966000       9.21073000       26      -0.94976200      -1.72308100      -0.36237700 
Fe       2.61939000       2.44791000       7.26154000       26      -0.13341900       0.28093600       0.48245700 
Fe       4.10409000       0.49267000       7.90844000       26      -1.18758500       0.16615400      -0.03641300 
Fe       4.06851000       4.30041000       6.47785000       26      -0.44607500       0.52418100       2.29384600 
Fe       2.57484000       0.00465000       5.95205000       26       0.32297800      -0.95115800      -0.09218800 
Fe       2.75403000       3.73175000       4.75408000       26      -1.70011300       0.03052600      -1.03899800 
Fe       3.95472000       1.84759000       5.41839000       26       0.97923400      -0.55590800      -0.12764100 
Fe       2.61869000       1.24754000       3.48536000       26      -0.28068100       0.26876700      -0.34636000 
Fe       4.03896000       5.71807000       4.13801000       26       0.40663400      -0.14983900      -0.04751700 
Fe       2.70295000       5.14350000       2.25222000       26       0.45443500      -1.08909000      -0.80916200 
Fe       4.13344000       3.05334000       2.77744000       26      -0.68987200       1.78335900       0.35275200 
Fe       2.73833000       2.64078000       0.89563000       26      -0.86423900       0.00470200       0.00760500 
Fe       4.04293000       0.76690000       1.53756000       26      -0.06012200      -1.41591200      -0.03206300 
Fe       4.13011000       4.55965000       0.19868000       26      -0.28873800      -0.29404300       0.58459000 
Fe       3.91065000       6.95373000      37.79584000       26       0.27544700      -0.11860300       0.91502400 
Fe       2.63138000       8.80582000      38.80622000       26      -0.17293300       0.37535700       0.21734400 
Fe       4.07845000      11.04882000      39.21427000       26      -0.25920500       0.26815000      -0.43917500 
Fe       2.61875000      11.45176000      41.09894000       26      -0.28361500       0.46701400      -1.41249600 
Fe       4.00455000       7.15794000      40.17470000       26       0.20279300      -0.54677000      -0.91173800 
Fe       2.58758000       7.56477000      42.04177000       26      -0.41420600       0.88997000       0.47108900 
Fe       3.95459000       9.44126000      41.19272000       26       0.08291500      -0.08351700       0.28906100 
Fe       2.51848000      10.15372000      43.24782000       26       0.14880100      -0.35772000       0.47928800 
Fe       4.06904000      12.12937000      42.78998000       26      -1.37094300       0.27735000       0.29957600 
Fe       3.89421000       8.24920000      43.90960000       26       0.95285700       0.47353700      -0.08213200 
Fe       2.58297000       6.44302000      44.61242000       26       0.14457800      -0.86013400       1.52259500 
Fe       2.61997000       8.92056000      45.83542000       26       0.18226800       0.39970700       0.46211900 
Fe       3.95143000      10.85527000      45.17663000       26       0.53730300      -0.15981400      -0.38637900 
Fe       2.63292000      11.60394000      47.05986000       26       0.53197400      -0.85886400       0.96032900 
Fe       4.05717000       7.13342000      46.68774000       26       0.04697000      -0.68534800      -1.98694600 
Fe       2.67229000       7.75122000      48.35017000       26      -0.21987200      -0.10071100       0.99010200 
Fe       4.12244000       9.62572000      47.76694000       26      -0.19344700       0.19910900      -0.74435800 
Fe       2.78908000      10.22130000      49.61928000       26      -1.03385500       0.29308100       0.49111800 