309
Properties=species:S:1:pos:R:3:forces:R:3  energy  =     -1224.94309028 eV een - entropy=    -1224.94393616  en(sigma->0) =    -1224.94337224
Au     14.61111     14.56773     14.46677        -0.304165     -0.344438     -0.108792
Au     12.78648     12.39334     14.38391        -1.016665      0.352223      0.692969
Au     12.51652     14.57169     12.53159        -0.318081      0.479604      0.219355
Au     12.42659     14.29073     16.43779         0.635080      0.546918      0.339897
Au     12.47718     16.50502     14.65468         0.270614     -0.290971     -0.205632
Au     14.46084     12.58993     12.30866         0.995192     -0.279395      0.425973
Au     14.55326     12.46301     16.48334        -0.050464      0.947887     -0.119019
Au     14.51648     16.65944     12.64002        -0.095362     -0.883149     -0.441782
Au     14.60052     16.46653     16.41059        -0.504865     -0.067864      0.190470
Au     16.43427     12.32626     14.37797         0.169971      0.359648      0.402732
Au     16.50586     14.34181     12.43412         0.018662      0.634775      0.324797
Au     16.59052     14.49390     16.37106        -0.031251     -0.136469      0.288730
Au     16.69386     16.51066     14.36665        -0.347435     -0.660445      0.251956
Au     10.49938     14.27069     14.57843         0.510650      0.582734     -0.564005
Au     14.51879     10.25559     14.42644         0.533371      0.262319      0.455234
Au     14.38856     14.73778     10.47734         0.423470      0.066424     -0.770255
Au     14.48014     14.61812     18.43535        -0.434800     -0.367045     -0.031681
Au     14.54188     18.56806     14.58452        -0.739989     -0.356160      0.114933
Au     18.64510     14.18987     14.39858        -0.495903      0.474628      0.239531
Au     10.68892     12.44730     12.43542         0.327393     -0.443402      0.006506
Au     10.34231     12.44647     16.55255         0.129448     -0.373972     -0.104347
Au     10.61521     16.65417     12.62211        -0.027017     -0.576858     -0.686555
Au     10.45536     16.29176     16.56901         0.419146      0.100475     -0.218240
Au     12.72573     10.45013     12.51519        -1.050054     -0.142676     -0.520285
Au     12.59913     10.53941     16.56245        -0.993823     -0.348897     -0.746679
Au     12.61396     12.67403     10.44121        -0.359569     -0.448679     -0.834528
Au     12.48019     12.54442     18.54185        -0.007164     -0.224923      0.347630
Au     12.41744     16.64059     10.44505         0.495699     -0.120546     -0.062863
Au     12.43818     16.51513     18.50927         0.145618     -0.444534     -0.015150
Au     12.62389     18.58564     12.44031        -0.737204     -0.250162      0.588573
Au     12.44784     18.52700     16.60104         0.011645     -0.223166     -0.546699
Au     16.41881     10.44233     12.42534         0.534898      0.086129     -0.068180
Au     16.46414     10.62065     16.63135         0.314111     -0.372845     -0.906037
Au     16.41589     12.56918     10.28169        -0.224278     -0.076819      0.180644
Au     16.45073     12.63270     18.58627        -0.327797      0.452648      0.066786
Au     16.52677     16.41058     10.58005        -0.027868     -0.134790      0.072087
Au     16.46327     16.54805     18.51984         0.524904     -0.686390      0.133484
Au     16.43393     18.66878     12.63743         1.003756     -0.504247     -0.329267
Au     16.56138     18.41450     16.44954         0.441856      0.021429      0.030776
Au     18.55888     12.42588     12.40094        -0.348836     -0.421527     -0.267347
Au     18.54445     12.56079     16.48054        -0.387310     -0.551224      0.063869
Au     18.61665     16.27003     12.49160        -0.270094      0.042487     -0.132363
Au     18.57448     16.43726     16.45723        -0.736807     -0.116903      0.554400
Au     10.60029     10.49523     14.57420        -0.067264     -0.028747      0.117985
Au     10.59815     14.56863     10.37350         0.500706      0.169795      0.079941
Au     10.38861     14.36248     18.55267         0.439566      0.224088      0.169234
Au     10.61863     18.52490     14.54035        -0.299704      0.275845      0.260162
Au     14.58859     10.58030     10.38246        -0.511907      0.137925      0.352112
Au     14.44735     10.56759     18.48021         0.395355      0.081396      1.401193
Au     14.71620     18.43753     10.52745        -1.267329     -0.157762     -0.281869
Au     14.56331     18.41149     18.38514        -0.690854      0.182002      0.533734
Au     18.59467     10.53778     14.38527        -0.260479      0.177516      0.643894
Au     18.44042     14.31277     10.47750         0.248269      0.777071     -0.169948
Au     18.50338     14.56809     18.49709         0.033061     -0.172386      0.063797
Au     18.48635     18.52140     14.45436         0.345430      0.161091     -0.064583
Au      8.45027     12.51208     14.30662         0.174089     -0.578413      0.998184
Au      8.81772     14.40408     12.41277        -0.987724      1.121235     -0.067233
Au      8.31094     14.45299     16.37511         0.545297     -0.237837      0.657529
Au      8.61478     16.43440     14.45412        -0.273813      0.006051     -0.211918
Au     12.60244      8.25335     14.51755         0.209867      0.089869      0.366050
Au     12.43880     14.65460      8.20002         0.733366     -1.036503      0.638722
Au     12.38787     14.52887     20.61247        -0.198266      0.014958     -0.138510
Au     12.52538     20.56142     14.59183        -0.264326      0.211621     -0.084696
Au     14.50440      8.16729     12.40038         0.426950      0.181094      0.736295
Au     14.52497      8.46372     16.45275         0.490319     -0.694390      0.172785
Au     14.55421     12.62689      8.23943        -0.484994      0.488064      0.504421
Au     14.41049     12.62952     20.58137        -0.310166     -0.419206      0.053140
Au     14.24712     16.62689      8.19008         0.308569     -0.111228      0.457851
Au     14.27033     16.67857     20.53637        -0.312687      0.334890     -0.124167
Au     14.47102     20.49445     12.53974        -0.134372      1.343089      0.344759
Au     14.59446     20.40757     16.57081        -0.881677      1.218530      0.640117
Au     16.45650      8.37698     14.38180         0.133825     -0.405271      0.118269
Au     16.43750     14.87297      8.26867        -0.034388     -0.725370      0.128702
Au     16.23354     14.66836     20.56944         0.782677      0.616543     -0.511890
Au     16.44355     20.59296     14.64604         0.517499      0.497883     -0.887843
Au     20.84035     12.35307     14.65652        -0.085752      0.168182      0.157992
Au     20.80588     14.39618     12.77144        -0.331214      0.009476     -0.754350
Au     20.64559     14.45675     16.58403         0.155919     -0.498292     -0.869408
Au     20.37994     16.32129     14.61746         1.422827      0.673943     -0.317850
Au     10.50912     10.50040     10.35691        -0.299371     -0.673978      1.202713
Au     10.48132     10.46945     18.46832         0.728084      0.269136      0.411380
Au     10.56494     18.66360     10.51054        -0.119910      0.068304      0.061386
Au     10.42441     18.40656     18.49633        -0.123110      0.430629     -0.412299
Au     18.58847     10.58368     10.21343        -0.635443      0.144939      1.217460
Au     18.30366     10.69187     18.69933         0.347685     -0.360448     -0.561087
Au     18.37630     18.42266     10.66258         0.394847     -0.079059     -0.194008
Au     18.55292     18.36976     18.44563         0.358737      0.419037      0.336746
Au      8.67631     10.56976     12.42118        -0.304128     -0.723883      0.119442
Au      8.46807     10.42446     16.61576        -0.220389      0.254913     -0.704128
Au      8.47290     12.56169     10.49716        -0.268746     -0.807915      0.492849
Au      8.27246     12.55304     18.48730        -0.332726     -0.369056      0.008829
Au      8.78402     16.55941     10.48707        -0.372305     -0.208522     -0.215634
Au      8.44829     16.22016     18.47344        -0.554221      0.749444     -0.113383
Au      8.39910     18.45853     12.56149         0.918119     -0.354918     -0.022600
Au      8.64923     18.32847     16.43966        -0.508090      0.284789      0.084570
Au     10.64331      8.45722     12.69752        -0.532361      0.672663     -0.281203
Au     10.65442      8.35082     16.58772         0.487840      0.321512     -0.582218
Au     10.53083     12.46151      8.59264        -0.270993      0.742963     -0.771836
Au     10.46224     12.48276     20.52820        -0.142688      0.249978      0.131776
Au     10.73884     16.64157      8.24386        -0.808873      0.173673      0.059209
Au     10.51258     16.58949     20.52207        -0.239430     -1.252300      0.184598
Au     10.47431     20.52762     12.70187         0.171426      0.498642     -0.151587
Au     10.33411     20.79183     16.23099         0.344643     -0.494286      0.934094
Au     12.51029      8.60352     10.61376        -0.626521     -0.360111     -0.201732
Au     12.70673      8.48111     18.50659        -0.361854     -0.201583      0.349422
Au     12.46141     10.57970      8.56883         0.552234      0.095214     -0.327162
Au     12.53569     10.45821     20.58302         0.000973      0.227039     -0.251150
Au     12.53016     18.69213      8.47706        -0.412440     -0.442562      0.115871
Au     12.27329     18.66083     20.63112         0.900238     -0.408638     -0.356392
Au     12.58096     20.58381     10.61079        -0.529492      0.289928     -0.234781
Au     12.19415     20.45059     18.42169         0.338268      0.569791      0.242488
Au     16.53534      8.51323     10.56079         0.119642      0.284774      0.169876
Au     16.31811      8.58265     18.57425         0.694901     -0.174908     -0.281341
Au     16.42358     10.46367      8.35751         0.187631      0.085224      0.218009
Au     16.45578     10.64044     20.68678        -0.806218      0.265335     -0.647017
Au     16.36786     18.26295      8.43504         0.524612      0.255479     -0.531628
Au     16.56436     18.55263     20.51727         0.303729     -0.040618     -0.078836
Au     16.36994     20.57750     10.56163         0.106428     -0.466433      0.201686
Au     16.68018     20.41758     18.42407        -0.026282      0.274680      0.607433
Au     18.69596      8.66468     12.46630        -0.642156     -0.267500     -0.232951
Au     18.24487      8.64512     16.42385         0.522676     -0.751125      0.329784
Au     18.25762     12.57706      8.31352         0.234097      0.655822     -0.501575
Au     18.37264     12.79939     20.66084         0.425503     -0.568213     -0.300044
Au     18.54542     16.58639      8.64370         0.167375     -0.408984     -0.469113
Au     18.49844     16.47562     20.47279        -0.066331      0.054075      0.759843
Au     18.64197     20.40183     12.40185         0.167119      0.247472      0.660427
Au     18.51087     20.48736     16.40859         0.542830     -0.001236      0.633596
Au     20.60416     10.68131     12.41108         0.389542     -0.966312      0.786284
Au     20.31309     10.45137     16.68146         0.203976     -0.906904     -0.803286
Au     20.65312     12.55237     10.58478        -0.499914      0.379598      0.183729
Au     20.49997     12.44934     18.36822         0.098357      0.995121      0.837742
Au     20.55507     16.36879     10.63493         0.261539      0.106071     -0.140450
Au     20.71897     16.43389     18.33285        -0.115434      0.721669      0.694993
Au     20.51742     18.31519     12.64026         0.698099      0.253758     -0.429590
Au     20.49025     18.50450     16.41019         0.673800     -0.094979      0.351809
Au      8.61006      8.53747     14.68006         0.081220      0.297217     -0.413820
Au      8.56378     14.37275      8.59710         0.887213      0.957733     -0.258399
Au      8.34561     14.46027     20.47944         0.489554      0.004057      0.576041
Au      8.34685     20.30452     14.56680        -0.330035      0.121556     -0.489790
Au     14.43234      8.47838      8.76939         0.075865      0.179795     -0.335395
Au     14.56915      8.45052     20.71424        -0.062591      0.586199      0.268090
Au     14.53343     20.39197      8.57722        -0.117633      0.423521      0.013831
Au     14.42489     20.26685     20.29241         0.120236     -0.223612     -0.048549
Au     20.56143      8.57464     14.51539        -0.390861      0.342983     -0.200414
Au     20.34950     14.43852      8.64501         0.113497      0.439302     -0.666673
Au     20.61472     14.53818     20.34589        -0.489602     -0.496685      0.024315
Au     20.66008     20.37308     14.44742        -0.304771     -0.074278     -0.155253
Au      6.57333     14.60008     14.35915        -0.838278     -0.012971     -0.370818
Au     14.25473      5.73144     14.27622         0.481089      0.915232      0.211991
Au     14.47177     14.51958      6.25626         0.237083     -0.681996     -0.309099
Au     14.22644     14.80596     22.61770        -0.069237     -0.693857      0.385891
Au     14.40974     22.45400     14.63533        -0.089946      0.670247      0.183838
Au     22.81914     14.50830     14.71659        -0.082101     -0.282569      0.408687
Au      6.41053     12.61101     12.53055        -0.180759     -0.066835     -0.540352
Au      6.25165     12.71270     16.47416        -0.157395     -0.435814     -0.059207
Au      6.54960     16.30147     12.23869         0.030415     -0.513855     -0.170365
Au      6.27500     16.32915     16.48992         0.194320      0.574364     -0.037250
Au     12.41189      6.38348     12.40995         0.167576     -0.707044     -0.241345
Au     12.77116      6.28834     16.55345         0.037465      0.026185      0.184635
Au     12.20987     12.50636      6.42493         0.592082     -0.003721     -0.154037
Au     12.44154     12.46074     22.67780         0.255006      0.291400     -0.266508
Au     12.80417     16.49942      5.79810        -0.639328      0.287483      0.222290
Au     12.21561     16.53514     22.74332         0.616287      0.291255      0.039017
Au     12.43205     22.93410     12.58291         0.200226     -0.733230     -0.003516
Au     12.50896     22.61307     16.77118         0.670269     -0.049010     -0.454463
Au     16.67466      6.33017     12.54333        -0.245843     -0.015585      0.026341
Au     16.32533      6.30475     16.44861        -0.094745      0.526238     -0.043471
Au     16.36032     12.43500      6.15560         0.262471      0.240232      0.135652
Au     16.30061     13.00322     22.58706         0.150628     -0.932319      0.718187
Au     16.19633     16.63856      6.09609         0.125153      0.352204     -0.125475
Au     16.16855     16.68993     22.42909         0.890840      0.324650      0.647819
Au     16.20133     22.67630     12.60376         0.380701     -0.155306      0.027691
Au     16.65652     22.58404     16.61778        -0.115632     -0.063497      0.025761
Au     22.79851     12.59744     12.58854         0.223432     -0.746279      0.411218
Au     22.82627     12.26304     16.67762         0.012290      0.661800     -0.429618
Au     22.65077     16.52558     12.85853        -0.009570     -0.168611     -0.550941
Au     22.69923     16.68678     16.43897         0.047597      0.147084     -0.373448
Au      6.46112     10.74550     14.68653         0.133725     -0.581708     -0.314337
Au      6.21117     14.30404     10.28053         0.299576      0.725548      0.935318
Au      6.08702     14.51034     18.43989         0.232945      0.060599      0.233295
Au      6.35091     18.05144     14.39563        -0.056742      0.018808      0.478624
Au     10.74521      6.20453     14.64007        -0.281549      0.287511     -0.003011
Au     10.62838     14.74672      6.25182        -0.632803     -0.190331     -0.348495
Au     10.54733     14.50630     22.81444        -0.209741     -0.387972     -0.430934
Au     10.70697     22.91953     14.64610        -0.055474     -0.279163     -0.314549
Au     14.65529      6.21269     10.56401        -0.162281     -0.005058     -0.160723
Au     14.64857      6.37575     18.70625        -0.047700     -0.067374     -0.684727
Au     14.37833     10.55391      6.50868        -0.413572     -0.092862     -0.426930
Au     14.59740     10.64584     22.60789        -0.371830      0.052760      0.133060
Au     14.39065     18.66893      6.19227        -0.004532      0.019353      0.105063
Au     14.12650     18.58847     22.75805         0.206405      0.046756     -0.504417
Au     14.30360     22.68089     10.56364         0.070447      0.178598      0.464710
Au     14.63430     22.44689     18.57482        -0.130746     -0.023631     -0.090095
Au     18.44971      6.39374     14.67266        -0.143004      0.240084      0.030085
Au     17.96625     14.64079      5.91837         0.140500     -0.471794      0.615813
Au     18.52775     14.62083     22.58012         0.018465      0.542966      0.036295
Au     18.54294     22.35767     14.39086        -0.256258      0.377706     -0.369358
Au     22.80534     10.48608     14.67696        -0.173881     -0.018632     -0.863930
Au     22.65457     14.56114     10.74917         0.202817      0.263176     -0.344585
Au     22.90524     14.53085     18.11189         0.113442     -0.005432      0.057430
Au     22.90035     18.60068     14.47480        -0.577744      0.409364      0.283886
Au      8.18025      8.46300     10.37089        -0.052947      0.019999      0.514449
Au      8.65528      8.44588     18.56334        -0.829046     -0.256306      0.346859
Au      8.29861     10.43599      8.55685         0.095586     -0.135654     -0.538153
Au      8.41540     10.55219     20.39938        -0.258290      0.114419      0.098524
Au      8.75346     18.51977      8.35538        -0.454810      0.366451      0.329689
Au      8.45254     18.36110     20.36166        -0.035907      0.438722      1.251335
Au      8.45389     20.47146     10.63019         0.070378      0.227372     -0.296496
Au      8.44597     20.64540     18.64414         0.122384      0.004197     -0.450175
Au     10.12799      8.28427      8.48241         0.416219      0.691964     -0.747466
Au     10.41384      8.50566     20.60975         0.483414      0.054823      0.355260
Au     10.46042     20.60983      8.42141        -0.421103      0.016113      0.264087
Au     10.25874     20.46571     20.62862        -0.229861      0.590219     -0.094348
Au     18.62353      8.56534      8.40405         0.133289     -0.233652     -0.311894
Au     18.50755      8.70013     20.59588         1.046633     -0.604819     -0.780706
Au     18.34549     20.23978      8.56513         0.563141      0.443242      0.357350
Au     18.87385     20.48712     20.79230        -0.498141      0.011686     -0.359043
Au     20.63561      8.30152     10.40945         0.239974      0.659114     -0.408910
Au     20.68249      8.24763     18.53825        -0.117153      1.106952      1.027603
Au     20.63123     10.51923      8.52251         0.263401     -0.640569     -0.231796
Au     20.49817     10.58407     20.30732        -0.010046     -0.505267      0.760535
Au     20.50344     18.49933      8.55257         0.293783     -0.202914      0.037186
Au     20.61338     18.27913     20.50050        -0.024485      0.568930     -0.143670
Au     20.60363     20.72135     10.16444        -0.465581     -0.270105      0.235141
Au     20.56671     20.41145     18.64571        -0.123197      0.199975     -0.107417
Au      6.34272     10.67580     10.56163         0.484452      0.047166      0.133162
Au      6.33417     10.45697     18.21207         0.327027      0.226551      0.338979
Au      6.68449     18.37588     10.46413        -0.134464     -0.022089     -0.474659
Au      6.78188     18.45851     18.40313        -0.951562     -0.672636     -0.257359
Au     10.36347      6.70859     10.55502         0.014177     -0.348741      0.325288
Au     10.72305      6.56446     18.67378        -0.105376     -0.236369     -0.403710
Au     10.35686     10.45327      6.59527         0.588591     -0.711463      0.456460
Au     10.39998     10.61837     22.46569         0.105739     -0.391726     -0.020310
Au     10.88642     18.43571      6.15380        -0.313165     -0.198328      0.338062
Au     10.47057     18.50280     22.61386        -0.622763      0.472924      0.077599
Au     10.43665     22.39508     10.66585         0.082994     -0.180642      0.206078
Au     10.24559     22.73613     18.17379        -0.061891     -0.544637      0.482023
Au     18.51846      6.72360     10.45898        -0.105547     -0.674723      0.256271
Au     18.50956      6.72445     18.51475        -0.301414      0.144429     -0.547849
Au     18.44819     10.53734      6.51159        -0.014276     -0.015231     -0.195177
Au     18.38168     10.63361     22.49829         1.044591      1.098392      0.257626
Au     18.42049     18.42040      6.43916        -0.653110      0.177900      0.471253
Au     18.56354     18.56142     22.72538        -0.180053     -0.615669     -1.054075
Au     18.21595     22.37371     10.72090         0.964840      0.976087     -0.205553
Au     18.78293     22.53685     18.58159        -0.210583     -0.826562     -0.337353
Au     22.62147     10.49959     10.59912        -0.250807      0.340136     -0.425594
Au     22.42607     10.36100     18.46069         0.414175     -0.503780      0.008168
Au     22.49845     18.33817     10.54404        -0.555289      0.198606      0.239018
Au     22.61795     18.57740     18.61702        -0.273493     -0.633066     -0.214333
Au      6.52947      8.86140     12.59164         0.513095     -0.113795      0.348995
Au      6.58912      8.08260     16.80892         0.213232      0.742372     -0.134951
Au      6.48228     12.45954      8.45941         0.070090     -0.535392     -0.413838
Au      6.30298     12.72638     20.48877         0.298417     -0.546748     -0.052840
Au      6.76403     16.46546      8.50315         0.151983      0.482643      0.594194
Au      6.34229     16.43616     20.41723         0.571996     -0.018218     -0.006577
Au      6.28296     20.09820     12.58337         0.092521      0.654881      0.087130
Au      6.45847     20.16107     16.44661        -0.194059     -0.095171     -0.038931
Au      8.61467      6.69096     12.48057        -0.580539      0.219945      0.598406
Au      8.74286      6.40534     16.64950         0.174926      0.053571     -0.300341
Au      8.65046     12.40506      6.50679        -0.313596      0.662224      0.317056
Au      8.56773     12.65313     22.63715        -0.030461     -0.190952     -0.582625
Au      8.63929     16.72750      6.36081         0.291120     -0.511986      0.155380
Au      8.54499     16.47555     22.41985         0.248163      0.096275     -0.011111
Au      8.34807     22.31131     12.79403         0.324447     -0.071705     -0.274532
Au      8.08335     22.39615     16.48314         0.520361      0.025239      0.239726
Au     12.33714      6.49084      8.85300         0.676724      0.254226     -0.472648
Au     12.62595      6.53473     20.53924        -0.179357      0.245082      0.395464
Au     12.45880      8.58498      6.83027        -0.526874     -0.361184     -0.153955
Au     12.47217      8.62856     22.58629        -0.030608      0.079242     -0.451652
Au     12.44151     20.58717      6.53446         0.046928      0.134311     -0.234331
Au     12.36412     20.78685     22.42470         0.043160     -0.451715     -0.178507
Au     12.35565     22.50620      8.61725         0.077953      0.000028      0.138516
Au     12.21720     22.48204     20.24514        -0.260169     -0.223728     -0.695279
Au     16.57294      6.77426      8.49676         0.501202     -0.458171      0.186392
Au     16.74147      6.65326     20.51082        -0.205659     -0.279263      0.163192
Au     16.36000      8.64335      6.38611         0.181069     -0.097456      0.223017
Au     16.74036      8.61852     22.57363        -1.277187     -0.636453      0.322788
Au     16.48812     20.48261      6.68779        -0.071959     -0.109316     -0.352319
Au     16.45744     20.39854     22.46899        -0.072562     -0.090620     -0.371072
Au     16.31491     22.58643      8.75294         0.296312     -0.099724     -0.267495
Au     16.82217     22.35056     20.39070        -0.029957     -0.421292     -0.022747
Au     20.25818      6.42094     12.62057         0.122890      0.411619     -0.129255
Au     20.53185      6.66071     16.52271        -0.726017     -0.614896     -0.633846
Au     20.41364     12.42103      6.62563        -0.234055      0.226497     -0.120584
Au     20.59114     12.35398     22.33263        -0.427782      0.368107     -0.279686
Au     20.00534     16.35927      6.26469         0.496831     -0.602637      0.633542
Au     20.63443     16.50846     22.43809        -0.958256      0.347637      0.082149
Au     20.51384     22.54225     12.37798        -0.515226     -0.297550      0.098530
Au     20.47871     22.35356     16.41993         0.128308     -0.033208      0.257609
Au     22.41028      8.55082     12.35960         0.041263     -0.100322      0.731200
Au     22.51746      8.49598     16.40972         0.195455      0.269386      0.569062
Au     22.41826     12.53603      8.67770         0.705118      0.287642     -0.488803
Au     22.65804     12.60390     20.02390        -0.365216      0.143413      0.307025
Au     22.50150     16.37000      8.59875        -0.655085      0.166736      0.299253
Au     22.76117     16.17508     20.24749        -0.232254      0.611303      0.068493
Au     22.33406     20.57279     12.21536         0.212245     -0.797580      0.109572
Au     22.52945     20.45586     16.68963        -0.199330     -0.139027     -0.483978
Au      6.77238      6.70724     14.48744         0.056637      0.023161     -0.061091
Au      6.87732     14.54047      6.70364        -0.242703     -0.185074     -0.904069
Au      6.65237     14.59243     22.62767         0.116572     -0.129822     -0.616858
Au      6.21369     22.15701     14.60315         0.371566     -0.445940     -0.545690
Au     14.45874      6.65271      6.94349        -0.506218     -0.254203     -0.426075
Au     14.74446      6.27766     22.30412        -0.032386      0.625699     -0.383993
Au     14.42721     22.37797      6.81814         0.120299      0.080069     -0.014608
Au     14.47379     22.40997     21.68808         0.223852      0.310164      0.513476
Au     22.43504      6.67853     14.35404        -0.366072      0.094326      0.014676
Au     22.10206     14.52536      6.65451        -0.186697      0.126426      0.133345
Au     22.24920     14.47899     22.46402         0.330794     -0.555954     -0.443396
Au     22.47029     22.23953     14.45100        -0.101214     -0.063262      0.051726
309
Properties=species:S:1:pos:R:3:forces:R:3  energy  =     -1230.74987376 eV een - entropy=    -1230.76445547  en(sigma->0) =    -1230.75473433
Au     14.52726     14.63872     14.71135        -0.436959     -0.372229     -0.597459
Au     12.58541     12.59041     14.69649        -0.554769      0.038043     -0.256027
Au     12.70372     14.54565     12.48406        -0.657639      0.079301      0.000835
Au     12.49848     14.66498     16.65190        -0.222050     -0.369776      0.462428
Au     12.46134     16.46770     14.57439         0.036465      0.131040      0.179603
Au     14.41802     12.42919     12.73111         0.275309      0.185132      0.042616
Au     14.58362     12.53403     16.54878        -0.087290     -0.497911      0.071055
Au     14.52371     16.55368     12.53810        -0.846397     -0.001863      0.282576
Au     14.42471     16.63451     16.64452        -0.347032      0.161863      0.159268
Au     16.61980     12.59358     14.61723        -0.619959     -0.164987     -0.089843
Au     16.24042     14.46539     12.58261         0.460190     -0.150028     -0.236444
Au     16.36353     14.65973     16.63912         0.438971      0.029887      0.501871
Au     16.55054     16.53233     14.50231        -0.594838     -0.531587     -0.340943
Au     10.52988     14.48900     14.50672        -0.260885     -0.007406     -0.235217
Au     14.55981     10.37400     14.60414         0.096198     -0.016199      0.981643
Au     14.52816     14.55458     10.35366         0.110214     -0.135459     -0.125656
Au     14.42010     14.59824     18.77760        -0.207700     -0.185820     -0.073611
Au     14.41881     18.59316     14.69621        -0.462336      0.032242     -0.230091
Au     18.53417     14.61642     14.37297         0.529424     -0.472170      0.328630
Au     10.78724     12.48442     12.41323        -0.138430      0.376200      0.481433
Au     10.47081     12.63989     16.54731         0.449551      0.120667      0.351656
Au     10.49702     16.45922     12.42203         0.534471     -0.828588     -0.075207
Au     10.36397     16.50470     16.63854         0.097137      0.139008      0.230058
Au     12.60170     10.36974     12.77664        -1.200083      0.083218      0.486938
Au     12.49917     10.47895     16.49727         0.752014      0.164610      0.708149
Au     12.69382     12.48781     10.44770         0.731804     -0.084603      0.692197
Au     12.67558     12.48021     18.52163        -0.408274     -0.041732      0.271485
Au     12.68382     16.69347     10.38735        -0.051065     -0.197480      0.350480
Au     12.40900     16.57011     18.93779         0.613848      0.123589     -0.115450
Au     12.41502     18.38712     12.65166         0.216599      0.902575     -0.195907
Au     12.30027     18.47543     16.70747         0.104039     -0.233734      0.400580
Au     16.60926     10.43315     12.85085         0.214588      0.135243     -0.489658