576
Lattice="14.70511136 0.0 0.0 0.0 8.00444876 0.0 0.0 0.0 55.45749959" Properties=species:S:1:pos:R:3:forces:R:3 magmom=1263.2320823 energy=-4700.2692401 stress="-0.0133006684303 0.000292651879894 -0.00119131060535 0.000292651879894 -0.0182686225851 -0.000336411100376 -0.00119131060535 -0.000336411100376 -0.020834681749" pbc="T T T"
Fe       0.05301000       0.13748000      40.85583000       1.12048900      -0.18480800       0.77359600 
Fe       1.05652000       1.93379000      42.09677000      -0.99186700       1.43184900      -0.18499300 
Fe       1.91559000       0.16664000      43.26508000      -1.18111700      -0.75392600      -0.28956700 
Fe       0.13016000       2.01392000      44.33664000      -0.05519800       1.15640600      -0.41226000 
Fe       0.93927000       0.16830000      45.54434000      -0.11211800      -1.13187000      -0.49245300 
Fe       1.65809000       2.08393000      46.63331000       0.84831900       0.25027500      -0.01528900 
Fe       0.00222000       0.07976000      47.79047000       0.70755000      -0.02960600      -0.87028500 
Fe       0.96232000       2.04061000      48.92854000      -0.90991200       0.27791700      -0.27848600 
Fe       1.72704000       0.08688000      50.02421000       0.05767900      -0.57797200       0.50032300 
Fe       0.06262000       1.96464000      51.17321000       0.06002200       1.39825600       0.55209300 
Fe       0.85948000       0.12887000      52.34512000       0.14118600      -0.70609700       0.15095800 
Fe       1.74445000       2.12570000      53.43821000      -0.70212500      -0.41976700       1.00179100 
Fe      14.61838000       0.16418000      54.65229000       1.20612100       0.39485900       0.47901500 
Fe       1.47632000       2.19225000      39.75381000       0.10459500       0.04492800      -0.59207800 
Fe       2.16066000       0.22702000      38.63411000       0.22377900       0.13748000      -0.65501600 
Fe       0.54687000       2.15222000      37.39137000       0.50719900       0.89117200       0.15170500 
Fe       1.47132000       0.27466000      36.34766000       0.16703800      -0.93033300      -0.28813600 
Fe       2.26770000       2.22836000      35.14207000       0.06566600      -0.01202300       0.21422000 
Fe       0.64637000       0.01369000      34.10809000      -0.06673700       0.70255300      -0.93923000 
Fe       1.49544000       2.04517000      32.91241000      -0.39719100       0.76925000      -0.50445600 
Fe       2.32497000       0.07371000      31.79676000      -1.31191700       0.70134700      -0.65637300 
Fe       0.71243000       2.07679000      30.58700000      -0.33671400       0.89900100      -0.39049100 
Fe       1.34882000       0.16854000      29.46231000       0.69630800      -0.19742400      -0.31697800 
Fe       2.11644000       2.22687000      28.13127000       0.39258800      -0.48657500       0.67131600 
Fe       0.42600000       0.14653000      13.31122000       0.45135000       0.17589300      -0.77590000 
Fe       2.18891000       2.05113000      14.44364000       0.33530100       0.61405600      -0.76370500 
Fe       1.45290000       0.09747000      15.54503000      -0.03076800       0.23904300      -0.57907500 
Fe       0.66287000       2.17009000      16.57505000      -0.25182800       0.61548300       0.26276800 
Fe       2.29465000       0.29823000      17.72607000      -0.64026200      -1.15754300       0.41940200 
Fe       1.53898000       2.22577000      18.94709000      -1.08682200      -0.40468100      -0.90522200 
Fe       0.62357000       0.08235000      19.84786000       0.02269100       0.76254100       1.25431900 
Fe       2.25458000       2.09656000      21.20336000      -0.71042200       0.72706700       0.32665200 
Fe       1.30297000       0.03788000      22.20274000       0.42004500       0.53760000       0.78011000 
Fe       0.67579000       2.22586000      23.45063000      -1.38443900      -1.04489700       0.14832300 
Fe       2.13164000       0.15975000      24.62189000       0.67238100       0.21514600       0.32377800 
Fe       1.33333000       2.22351000      25.83278000       0.20153400      -0.79453700       0.06165200 
Fe       0.61021000       0.13209000      27.20498000      -0.10265200       0.34770100      -1.31519000 
Fe       1.61827000       2.20097000      12.07694000       0.13720700       0.19297000      -0.24826800 
Fe       0.86120000       0.24430000      10.91270000      -0.46416100      -0.52322300      -0.51491000 
Fe      14.70228000       2.14099000       9.65413000      -0.05087200       0.57910000       0.69611900 
Fe       1.66849000       0.33822000       8.54673000      -0.34876800      -0.46232200      -0.61261900 
Fe       0.88224000       2.29223000       7.38843000      -0.27031500      -0.09661900       0.22169800 
Fe       0.06801000       0.29588000       6.13797000      -0.31746400      -0.62942700       1.10789300 
Fe       1.51634000       2.13436000       5.15324000       1.61409600       1.38512900      -1.76587200 
Fe       0.76316000       0.22547000       3.87605000       0.71182300      -0.04452800      -0.20413200 
Fe      14.52634000       2.21269000       2.65456000       1.45361400      -0.10554800       0.23004300 
Fe       1.59609000       0.23860000       1.62700000      -0.20422200      -0.69819100      -0.55159500 
Fe       0.89084000       2.27299000       0.34420000      -1.02163000      -0.53506300       0.09800300 
Fe       0.37463000       4.10203000      40.88953000      -1.04420000       0.10001400       0.32561300 
Fe       1.04167000       6.15650000      42.00876000      -1.31365400       0.59529000       0.46198100 
Fe       1.73932000       4.14082000      43.02533000      -0.00878700      -0.46631800       1.17542900 
Fe       0.11870000       6.18530000      44.27478000      -0.42337200      -0.00593900       0.05406200 
Fe       0.99214000       4.20162000      45.34782000      -0.74223200      -0.90403700       0.32789100 
Fe       1.81923000       6.04701000      46.64125000      -1.02686500       0.67931800      -0.48583400 
Fe       0.13174000       3.92810000      47.57651000      -0.20028200       1.90784400       1.70565500 
Fe       0.96375000       6.10198000      48.91183000      -1.05369600      -0.59317300      -0.44487300 
Fe       1.55185000       4.04654000      50.09118000       0.82871300       0.08343300      -0.24978400 
Fe       0.02356000       5.97942000      51.15562000      -0.03441700       1.08798200       0.44845200 
Fe       0.87443000       4.14444000      52.45840000      -1.11225300      -0.65183300      -0.49689100 
Fe       1.52981000       6.14494000      53.55371000       1.14337200       0.13414300      -0.12194900 
Fe      14.61767000       4.28946000      54.81518000       1.12919000      -0.81901300      -1.15311000 
Fe       1.59830000       6.21163000      39.78077000      -0.97986000       0.15262700      -0.16631700 
Fe       2.19421000       4.26807000      38.57171000      -0.14422100      -0.94708900      -0.97873900 
Fe       0.57096000       6.27102000      37.58294000       0.20896400      -0.43730300      -1.08473300 
Fe       1.46481000       4.30251000      36.26118000      -0.67376100      -1.10745600       0.68149700 
Fe       2.27698000       6.15177000      35.04100000      -0.05105300       0.72725000       1.15558900 
Fe       0.64726000       4.15888000      34.07589000      -0.74949400      -0.91082900      -0.77897700 
Fe       1.44711000       6.08250000      32.95078000      -0.23708400       0.40273400      -1.22074400 
Fe       2.23371000       4.12821000      31.68459000      -0.07259500       0.15827100      -0.45349400 
Fe       0.57368000       6.19074000      30.69853000      -0.13632400      -0.34451100      -1.10249400 
Fe       1.34398000       4.25530000      29.42820000      -0.17858100      -0.82378100      -0.59398600 
Fe       2.12953000       6.21531000      28.22831000       0.03979400      -0.09140200      -0.29882300 
Fe       0.45611000       4.10813000      13.11290000       0.35611100       0.75562200       0.34980700 
Fe       2.19805000       6.11248000      14.35780000       0.73886300       1.03832300      -0.93631500 
Fe       1.59986000       4.14370000      15.29435000      -2.14106100      -0.68763300       1.11180800 
Fe       0.62617000       6.01408000      16.35941000      -0.55654200       1.17328700       2.25860900 
Fe       2.20449000       4.30223000      17.70671000       0.66302200      -1.35265200      -0.01077500 
Fe       1.47146000       6.23357000      18.74913000      -0.70306600      -0.38961800       0.24357200 
Fe       0.64762000       4.09135000      19.93123000      -0.33730300       0.69489300       0.73434900 
Fe       2.23769000       6.06812000      20.99861000      -0.05088900       0.51954600       0.82126500 
Fe       1.37391000       4.16685000      22.30845000      -0.12479800      -0.38021900      -0.41140000 
Fe       0.61651000       6.06542000      23.50652000      -0.42561600       0.63890200      -0.23273100 
Fe       2.09015000       4.34891000      24.66602000       0.41058300      -1.49552400       0.07683700 
Fe       1.33724000       6.26657000      25.83524000      -0.06753200      -0.28278100       0.26887900 
Fe       0.48572000       4.16203000      26.96550000      -0.12855900       0.03824400       0.67755200 
Fe       1.75977000       6.23867000      12.01815000      -0.95981200      -0.16347100      -0.56658800 
Fe       0.84660000       4.25303000      10.76877000       0.51035300      -0.26945700       0.21456000 
Fe       0.14144000       6.20616000       9.68506000      -1.02019900       0.41119600      -0.17930800 
Fe       1.74524000       4.36048000       8.49398000      -0.77628300      -1.40687900      -0.77114000 
Fe       0.92721000       6.33429000       7.37792000      -0.41972300      -0.24806400      -0.41997100 
Fe       0.02763000       4.26623000       6.27168000       0.09658000      -0.20771100      -0.47223200 
Fe       1.70663000       6.28508000       5.07823000      -0.51847100      -0.39420600      -0.16063200 
Fe       0.79549000       4.21126000       3.89858000       0.08805800      -0.26454100       0.26870800 
Fe      14.69909000       6.21225000       2.87492000      -0.37787200      -0.13755800      -1.02293900 
Fe       1.71560000       4.26384000       1.56204000      -0.86951400      -0.77626100      -0.10598700 
Fe       0.82484000       6.21813000       0.40306000      -0.14698300       0.11783300       0.59441500 
Fe       2.74826000       0.30119000      40.91618000      -0.63773400      -1.11999300       0.18742300 
Fe       3.47329000       2.24410000      42.10809000       0.02283300      -0.77132800       0.05663900 
Fe       4.26086000       0.11187000      43.26198000      -0.17743700       0.80540400       0.12851100 
Fe       2.55316000       2.13390000      44.39640000       0.07836300      -0.26748200      -0.32492800 
Fe       3.46296000       0.10991000      45.52257000      -1.06076000       0.10431700       0.09756600 
Fe       4.11466000       2.18468000      46.76643000       0.18235000      -0.55072700      -0.65353000 
Fe       2.46600000       0.10024000      47.75683000       0.72127000      -0.06973200       0.19117800 
Fe       3.31034000       2.16922000      49.03897000       0.21974400      -0.88732400      -1.09533600 
Fe       4.24682000       0.16663000      50.05009000      -1.44952000      -0.97486300       0.06604900 
Fe       2.51407000       2.00781000      51.18093000      -0.53723000       0.34381400       0.81225300 
Fe       3.37369000       0.02615000      52.36450000      -0.81828400      -0.14493600       0.41748200 
Fe       4.14599000       2.04696000      53.57452000      -1.11668900       0.41188500       0.40661900 
Fe       2.42489000       0.04806000      54.78995000       0.10853300       0.81690600      -0.78225900 
Fe       3.87680000       2.17998000      39.73505000       0.74310400       0.20317200      -0.32399700 
Fe       4.62616000       0.17656000      38.57589000       0.59400600       0.66311000      -0.26420600 
Fe       3.15499000       2.17668000      37.38270000      -1.09591700       0.61200600       0.47663000 
Fe       3.95503000       0.21975000      36.23130000      -0.59507800      -0.08992900       0.21334800 
Fe       4.78091000       2.24122000      35.11322000      -0.57892400      -0.14135800      -1.08502600 
Fe       3.07191000       0.28375000      34.07494000       0.49440800      -0.88928700      -0.83198400 
Fe       3.88878000       2.26323000      32.72180000       0.38039600      -0.99593500       0.87758300 
Fe       4.55064000       0.10821000      31.56501000       2.18000900       0.33667000       0.65529100 
Fe       3.18824000       2.15222000      30.49880000      -1.47707100      -0.37765500      -0.38017100 
Fe       3.94411000       0.07165000      29.39637000      -1.05124400       1.08088000      -0.77943200 
Fe       4.62824000       2.16929000      28.11362000      -0.21293600      -0.28560100       0.91855900 
Fe       2.97070000       0.24297000      13.09703000      -0.08247700      -0.57899400       0.43427900 
Fe       4.61118000       2.14367000      14.31448000       0.54234700       0.00973800       0.08003800 
Fe       3.93041000       0.06660000      15.48261000      -0.94104400       1.06190300      -0.56488200 
Fe       3.12273000       2.14533000      16.72581000      -0.37563600       0.89979900      -1.09311300 
Fe       4.59968000       0.07801000      17.71584000       1.15256800       1.28418500       0.83768500 
Fe       3.93098000       2.21179000      18.97995000       0.26650400      -0.60412900      -0.49192200 
Fe       2.99528000       0.25433000      20.03293000       0.65699600      -1.09963100      -0.09333400 
Fe       4.71017000       2.20229000      21.31509000      -0.30551000      -0.18051200      -0.37548500 
Fe       3.70491000       0.17724000      22.33662000       0.96219600      -0.35366600       0.32371000 
Fe       2.97095000       2.25067000      23.55103000       0.18484000      -0.48749800      -0.00284700 
Fe       4.67742000       0.07281000      24.74258000      -1.11773500       0.86301500      -0.11145200 
Fe       3.74838000       2.26247000      25.91706000       0.11345000      -0.62457200      -0.56032800 
Fe       3.13563000       0.17091000      27.11914000      -1.33286400       0.26722700      -0.65588500 
Fe       4.02319000       2.36266000      11.93228000       0.32347000      -0.80072100      -0.32007700 
Fe       3.15281000       0.24630000      10.68300000       1.46368600       0.07437100       0.51849000 
Fe       2.35680000       2.29443000       9.77148000       1.02552800      -0.07741300      -1.23998600 
Fe       4.05996000       0.13985000       8.41141000       0.61913700       1.20563200       0.31892900 
Fe       3.31780000       2.21587000       7.33241000      -0.39435800       0.28597000       0.40768500 
Fe       2.50122000       0.32074000       6.12975000      -0.10435500      -1.24235700       0.67001100 
Fe       4.08314000       2.11731000       5.04250000      -0.09275000       0.86511800      -0.25218400 
Fe       3.33070000       0.23438000       3.80994000      -1.03248000      -0.33103200       0.41000500 
Fe       2.37094000       2.17146000       2.64917000       0.18236700       0.51333100       1.22240000 
Fe       4.09024000       0.14101000       1.60140000      -0.42132200       0.58563600      -0.57561100 
Fe       3.17094000       2.18283000       0.45777000       1.25065200      -0.40821200      -0.86440800 
Fe       2.68535000       4.15344000      40.81796000       0.83665600       0.25422600       0.52558500 
Fe       3.41952000       6.13133000      42.01879000      -0.03167500       0.26669100      -0.06697400 
Fe       4.12053000       4.14394000      43.22696000       0.85382800       0.46002800      -0.05656300 
Fe       2.50027000       6.10939000      44.26168000       0.97622300       0.12860600       0.81420300 
Fe       3.30173000       4.01541000      45.45420000       0.62454700       1.43034100       0.39004900 
Fe       4.19805000       6.10220000      46.61191000      -0.44613200       0.05993200       0.29903400 
Fe       2.57504000       4.07995000      47.75195000      -0.80243300      -0.04645500       0.42693800 
Fe       3.31205000       6.02852000      48.92528000       0.20974300       0.76752900       0.24553500 
Fe       4.04086000       4.01846000      50.19661000       0.74580700       0.75097900      -0.62719500 
Fe       2.44950000       6.03526000      51.22606000       0.31096600       0.47118600       0.04006500 
Fe       3.20672000       4.04944000      52.33152000       1.06008500       0.28913800       0.92724900 
Fe       4.21646000       6.05720000      53.57194000      -1.05754200       0.11522000      -0.69938200 
Fe       2.45071000       4.18608000      54.65173000       0.23685800      -0.08024500       0.32272400 
Fe       3.90645000       6.22416000      39.55924000       0.26019900       0.14021800       1.43235900 
Fe       4.57348000       4.32752000      38.49062000       0.70945900      -1.31458900      -0.18423200 
Fe       2.90907000       6.24037000      37.38450000       1.09158500       0.17130500      -0.38762000 
Fe       3.86530000       4.22704000      36.16970000       0.27479500      -0.03738300       0.30525400 
Fe       4.64000000       6.19293000      35.01871000       0.61561600       0.26186600      -0.37226100 
Fe       3.02944000       4.16166000      33.88114000       0.61499300       0.15142600       0.52564500 
Fe       3.90666000       6.21350000      32.72780000      -0.16728800      -0.59838900       0.25876500 
Fe       4.70081000       4.17277000      31.56535000      -0.31719000       0.13204600      -0.14696200 
Fe       2.95329000       6.19720000      30.42703000       0.64021000      -0.93868800       0.84064400 
Fe       3.69212000       4.06316000      29.21068000       1.00986500       1.00547600       0.91957900 
Fe       4.58074000       6.17220000      28.24011000       0.26425800      -0.73732500      -0.76422300 
Fe       3.07716000       4.23890000      13.08067000      -0.48068500      -0.32302200      -0.12948000 
Fe       4.67486000       6.23986000      14.29376000       0.12163600      -0.60633500      -0.19674700 
Fe       3.84848000       4.22910000      15.35162000       0.77137600      -0.52024200       1.19837300 
Fe       3.04554000       6.19811000      16.65197000       0.33753100      -0.21124700      -0.71671200 
Fe       4.64850000       4.19515000      17.80981000      -0.23853100      -0.30064100      -0.57507300 
Fe       3.92150000       6.21416000      18.89457000      -0.82291400      -0.52233200       0.41071800 
Fe       3.11290000       4.05582000      20.00858000      -0.30627300       1.34016600       0.18841900 
Fe       4.76536000       6.10581000      21.19091000      -0.94983800       0.90729100       0.25511800 
Fe       3.78300000       4.22003000      22.27670000       0.55864200      -0.78045500       0.61286000 
Fe       3.04654000       6.10691000      23.40724000      -0.64616200       1.08400400       0.47032500 
Fe       4.51388000       4.17803000      24.63281000       0.54244400       0.32293400       0.93533900 
Fe       3.73117000       6.16797000      25.91374000       0.44580200       0.23450000      -0.48366000 
Fe       2.79737000       4.27169000      26.98427000       1.23840600      -0.53100000       0.18401600 
Fe       4.12108000       6.22621000      11.87624000      -0.35025200       0.20773800       0.43246400 
Fe       3.21080000       4.33202000      10.58944000       0.93905500      -0.39154700       1.14876500 
Fe       2.52375000       6.24279000       9.45136000      -0.13936500       0.72626200       1.81963500 
Fe       4.24425000       4.25763000       8.42144000      -0.82604400      -0.29037700       0.03133300 
Fe       3.34858000       6.22176000       7.30498000      -0.37529800      -0.05353900      -1.14406900 
Fe       2.42541000       4.18201000       6.12618000       0.47045400       0.42869500       0.37220300 
Fe       4.07696000       6.23368000       4.90821000       0.09891400      -0.46500200       0.75359300 
Fe       3.30593000       4.15094000       3.84304000      -0.85216200      -0.07959700      -0.02752200 
Fe       2.33330000       6.11136000       2.77086000       1.17092900       1.19155500      -0.20353600 
Fe       4.16130000       4.13052000       1.48400000      -0.79342300       0.57069000       0.39889700 
Fe       3.29505000       6.14857000       0.46665000       0.04098800      -0.15361400      -0.48224000 
Fe       5.05144000       0.05541000      41.13561000       0.72504800       1.32052100      -2.11309200 
Fe       5.93499000       2.27112000      42.09512000      -1.07738300      -0.83929000       0.55779100 
Fe       6.72247000       0.19958000      43.21025000      -0.39387800       0.18379900       0.49103300 
Fe       4.96569000       2.15969000      44.43785000       0.59432400      -0.05188200      -0.17362000 
Fe       5.80571000       0.11365000      45.51689000       0.53021100       0.83127300       0.01286300 
Fe       6.55711000       2.12385000      46.80689000       0.42997400       0.43252500      -1.35787100 
Fe       4.92261000       0.20512000      47.79389000      -0.00416200      -0.64222400       0.12377800 
Fe       5.78202000       2.17827000      48.96541000      -0.45007400      -0.33290700       0.91102200 
Fe       6.56185000       0.13977000      50.18810000       0.37106700       0.12503900      -0.78624900 
Fe       4.86971000       1.95846000      51.34137000       0.76966600       1.72995800      -0.83153400 
Fe       5.77385000       0.17778000      52.46204000       0.19317700      -1.52428700      -0.02612200 
Fe       6.41804000       2.07740000      53.59367000       1.76510900       0.56281400       0.79539900 
Fe       4.88500000       0.02775000      54.68436000       0.29105700       0.83869100       0.80052500 
Fe       6.41775000       2.14504000      39.78878000      -0.77226800      -0.15113300      -0.59296800 
Fe       7.12127000       0.24442000      38.43798000      -0.57877700      -0.69444700       0.04910100 
Fe       5.49654000       2.27574000      37.33560000       0.30554700      -0.83385700       0.72725200 
Fe       6.30684000       0.18399000      36.01632000       0.58715900       0.52256500       1.01570000 
Fe       7.19967000       2.24069000      34.92051000      -0.54470500      -0.63381000       0.54525600 
Fe       5.53539000       0.20329000      33.75850000      -0.30075900      -0.14009000       0.56692800 
Fe       6.35529000       2.17827000      32.68280000      -0.26881100       0.30362100       0.30938900 
Fe       7.17569000       0.15497000      31.52598000      -0.59473700      -0.05019900       0.28680100 
Fe       5.52789000       2.09819000      30.51150000      -0.32859400      -0.30695200      -0.65414200 
Fe       6.35260000       8.00189000      29.28992000      -0.31350600       1.05357700       0.08206200 
Fe       7.02570000       2.14547000      28.17437000       0.79533200       0.02859900       0.60574400 
Fe       5.46366000       0.19016000      13.06837000      -1.00904400       0.44937300       0.73668500 
Fe       7.13914000       2.26973000      14.32700000      -0.38359000      -0.75059000       0.29869000 
Fe       6.28164000       0.13740000      15.49210000       0.44708000       0.44711100      -0.65459300 
Fe       5.44597000       2.12606000      16.62488000       0.50544700       0.28015200       0.07527300 
Fe       7.08556000       0.11191000      17.73108000       0.03471800       0.38700400       0.50040700 
Fe       6.31467000       2.12198000      18.93423000      -0.19711800       0.12955100       0.32759800 
Fe       5.40115000       0.17323000      20.06778000       0.85822000      -0.13651200       0.04520300 
Fe       7.09430000       2.17760000      21.31607000      -0.03834000      -0.06217300      -0.91014200 
Fe       6.25037000       0.14732000      22.37741000      -0.26491400      -0.05347200       0.23558600 
Fe       5.33304000       2.15717000      23.67279000       0.87667500      -0.24715000      -0.42806400 
Fe       7.01684000       0.18645000      24.76027000       0.73741400      -0.49717100      -0.02410600 
Fe       6.25280000       2.20009000      26.03101000      -0.69478600      -0.10175200      -1.59316900 
Fe       5.48200000       0.13302000      27.06111000       0.19607200      -0.00628600      -0.10341600 
Fe       6.50906000       2.21692000      11.88930000      -0.02598700       0.04696900       0.44591100 
Fe       5.68430000       0.27267000      10.70506000       0.13938500      -0.21047000      -0.26352200 
Fe       4.95970000       2.25622000       9.55633000      -0.52486200      -0.13579100       0.50533800 
Fe       6.57786000       0.17105000       8.40575000      -0.08036700       0.19952200       0.23922200 
Fe       5.71792000       2.17177000       7.31833000       0.77523500       0.43708300      -0.24214200 
Fe       4.91932000       0.18436000       6.17992000       0.08039900      -0.05031200      -0.32496000 
Fe       6.52862000       2.24463000       4.99913000       0.01778600      -0.15596000       0.46328500 
Fe       5.74175000       0.10350000       3.94025000       0.02486300       0.69312800      -0.45883900 
Fe       4.92337000       2.20398000       2.80561000      -0.72879800      -0.98470600      -0.80703300 
Fe       6.45180000       0.13499000       1.65803000       0.54964100       0.30703100      -0.34082100 
Fe       5.64485000       2.19042000       0.50046000       0.31603600      -1.25740100      -0.91127200 
Fe       5.18134000       4.18855000      40.88000000      -0.43190100       0.38220500      -0.15423700 
Fe       5.81600000       6.19397000      42.15719000       0.53056600      -0.74956600      -0.75167500 
Fe       6.56418000       4.21574000      43.31939000       0.25958200      -0.31273100      -0.67936400 
Fe       5.02451000       6.19779000      44.35646000      -0.42751800      -0.81675300       0.27618000 
Fe       5.75248000       4.17999000      45.57491000       0.36352200      -0.32082400       0.06520300 
Fe       6.56084000       6.20842000      46.64712000       0.70534000      -0.79861600       0.09189500 
Fe       4.92961000       4.14339000      47.91141000       0.41727300       0.04810900      -0.66010900 
Fe       5.70412000       6.16790000      48.91262000       0.54766000      -0.10563200       0.32545800 
Fe       6.55092000       4.18286000      50.08885000       0.14846700      -0.30988400       0.36867200 
Fe       4.94395000       6.12250000      51.15741000      -0.21807100      -0.29405100       0.91260700 
Fe       5.79109000       3.99253000      52.36189000      -0.62732700       1.01632100       0.07360000 
Fe       6.62138000       6.07355000      53.49346000      -0.34957800       0.81633700       0.64773300 
Fe       5.00783000       4.15118000      54.64812000      -0.59570300      -0.45672200       0.24795800 
Fe       6.36230000       6.21716000      39.59417000      -0.35233900       0.14029900       0.64158000 
Fe       7.05322000       4.10698000      38.58459000      -0.01358600       0.63714600      -0.82371500 
Fe       5.43552000       6.23144000      37.21989000       0.44463400      -0.15821700       0.85702100 
Fe       6.40685000       4.11407000      36.16983000      -0.90780300       1.07499800       0.17364400 
Fe       7.16124000       6.23331000      35.06384000      -0.23307500      -0.30913000      -0.40077400 
Fe       5.45255000       4.24249000      33.80026000       0.46313400      -0.36276800       0.76167800 
Fe       6.43035000       6.15338000      32.69478000      -1.25299200       0.70475500       0.12017900 
Fe       7.24478000       4.22106000      31.60497000      -0.74251200      -0.80584800       0.32395000 
Fe       5.49308000       6.06778000      30.39253000      -0.36236200       0.35521200       0.81758500 
Fe       6.30601000       4.01441000      29.49315000      -0.51740100       0.97793900      -1.89112100 
Fe       7.08957000       6.01098000      28.12928000       0.05569900       0.92376000       0.43257700 
Fe       5.53240000       4.14412000      13.26001000      -0.19306300       0.40851600      -0.41851300 
Fe       7.10174000       6.13503000      14.26887000       0.11026500       0.42476200       1.08866000 
Fe       6.26915000       4.22710000      15.56264000      -0.07786800      -0.65990100      -0.68668200 
Fe       5.52472000       6.19455000      16.66864000      -0.71721700      -0.61860800      -1.02368200 
Fe       6.99832000       4.10644000      17.80240000       0.75855900       0.22275800       0.11185600 
Fe       6.24248000       6.09779000      18.82310000       1.02226900       1.07770100       1.54394900 
Fe       5.58738000       4.25429000      20.11474000      -0.60506000      -1.40159500      -0.01699800 
Fe       7.13210000       6.10965000      21.31278000       0.15915300       0.71530800      -0.86617900 
Fe       6.29211000       4.11173000      22.54984000      -0.20444500       0.32165300      -0.89452500 
Fe       5.40784000       6.14346000      23.55041000       0.59202400       0.09590300      -0.01248300 
Fe       7.10460000       4.19840000      24.76293000      -0.46619600      -0.32475200      -0.46601100 
Fe       6.19454000       6.14904000      25.91204000       0.34463000       0.05907100      -0.39708600 
Fe       5.37076000       4.21579000      27.06566000       0.03554200      -0.22105400      -0.13110100 
Fe       6.45315000       6.22384000      12.01919000       0.41063800      -0.15547800      -0.47557400 
Fe       5.72825000       4.26980000      10.82984000      -0.37138100      -0.63823700      -0.45458700 