216
Lattice="27.71744613 0.24499252 0.0 0.0 7.34969779 0.0 0.0 0.0 12.00200624" Properties=species:S:1:pos:R:3:force:R:3 magmom=474.5682784 energy=-1778.28341902 stress="-0.000706957014161 0.00427408558526 -0.0 0.00427408558526 0.00193967379105 -0.0 -0.0 -0.0 -0.00197906395514" pbc="T T T"
Fe       0.01410000       7.34970000       0.00000000      -0.00406100      -0.61431400      -0.00000000 
Fe       2.31929000       0.81663000       0.00000000       0.01219300       0.02508800       0.00000000 
Fe       4.62761000       1.63327000       0.00000000       0.00129500       0.00771900      -0.00000000 
Fe       1.15880000       1.63327000       2.00033000      -0.00800300      -0.18057400       0.00000000 
Fe       3.47301000       7.34970000       2.00033000       0.00226700       0.01069400       0.00000000 
Fe       5.78092000       0.81663000       2.00033000      -0.00192000       0.00454900      -0.00000000 
Fe       6.93395000       7.34970000       0.00000000       0.00084900      -0.00375200       0.00000000 
Fe       9.24238000       0.81663000       0.00000000      -0.00343900      -0.00178700      -0.00000000 
Fe      11.55057000       1.63327000       0.00000000      -0.00303800      -0.00516600       0.00000000 
Fe       8.08788000       1.63327000       2.00033000      -0.00319500      -0.00204500       0.00000000 
Fe      10.39666000       7.34970000       2.00033000      -0.00567600      -0.00079800       0.00000000 
Fe      12.70436000       0.81663000       2.00033000      -0.00195900      -0.00003800      -0.00000000 
Fe      13.85819000       7.34970000       0.00000000       0.00195900       0.00003800       0.00000000 
Fe      16.16589000       0.81663000       0.00000000       0.00567600       0.00079800       0.00000000 
Fe      18.47468000       1.63327000       0.00000000       0.00319500       0.00204500       0.00000000 
Fe      15.01199000       1.63327000       2.00033000       0.00303800       0.00516600       0.00000000 
Fe      17.32017000       7.34970000       2.00033000       0.00343900       0.00178700       0.00000000 
Fe      19.62860000       0.81663000       2.00033000      -0.00084900       0.00375200       0.00000000 
Fe      20.78163000       7.34970000       0.00000000       0.00192000      -0.00454900       0.00000000 
Fe      23.08954000       0.81663000       0.00000000      -0.00226700      -0.01069400      -0.00000000 
Fe      25.40375000       1.63327000       0.00000000       0.00800300       0.18057400      -0.00000000 
Fe      21.93494000       1.63327000       2.00033000      -0.00129500      -0.00771900      -0.00000000 
Fe      24.24327000       7.34970000       2.00033000      -0.01219300      -0.02508800       0.00000000 
Fe      26.54845000       0.81663000       2.00033000       0.00406100       0.61431400       0.00000000 
Fe       0.01410000       2.44990000       0.00000000      -0.00406100      -0.61431400      -0.00000000 
Fe       2.31929000       3.26653000       0.00000000       0.01219300       0.02508800       0.00000000 
Fe       4.62761000       4.08317000       0.00000000       0.00129500       0.00771900      -0.00000000 
Fe       1.15880000       4.08317000       2.00033000      -0.00800300      -0.18057400      -0.00000000 
Fe       3.47301000       2.44990000       2.00033000       0.00226700       0.01069400       0.00000000 
Fe       5.78092000       3.26653000       2.00033000      -0.00192000       0.00454900       0.00000000 
Fe       6.93395000       2.44990000       0.00000000       0.00084900      -0.00375200       0.00000000 
Fe       9.24238000       3.26653000       0.00000000      -0.00343900      -0.00178700      -0.00000000 
Fe      11.55057000       4.08317000       0.00000000      -0.00303800      -0.00516600       0.00000000 
Fe       8.08788000       4.08317000       2.00033000      -0.00319500      -0.00204500       0.00000000 
Fe      10.39666000       2.44990000       2.00033000      -0.00567600      -0.00079800       0.00000000 
Fe      12.70436000       3.26653000       2.00033000      -0.00195900      -0.00003800      -0.00000000 
Fe      13.85819000       2.44990000       0.00000000       0.00195900       0.00003800      -0.00000000 
Fe      16.16589000       3.26653000       0.00000000       0.00567600       0.00079800       0.00000000 
Fe      18.47468000       4.08317000       0.00000000       0.00319500       0.00204500      -0.00000000 
Fe      15.01199000       4.08317000       2.00033000       0.00303800       0.00516600      -0.00000000 
Fe      17.32017000       2.44990000       2.00033000       0.00343900       0.00178700       0.00000000 
Fe      19.62860000       3.26653000       2.00033000      -0.00084900       0.00375200       0.00000000 
Fe      20.78163000       2.44990000       0.00000000       0.00192000      -0.00454900       0.00000000 
Fe      23.08954000       3.26653000       0.00000000      -0.00226700      -0.01069400       0.00000000 
Fe      25.40375000       4.08317000       0.00000000       0.00800300       0.18057400       0.00000000 
Fe      21.93494000       4.08317000       2.00033000      -0.00129500      -0.00771900       0.00000000 
Fe      24.24327000       2.44990000       2.00033000      -0.01219300      -0.02508800      -0.00000000 
Fe      26.54845000       3.26653000       2.00033000       0.00406100       0.61431400      -0.00000000 
Fe       0.01410000       4.89980000       0.00000000      -0.00406100      -0.61431400       0.00000000 
Fe       2.31929000       5.71643000       0.00000000       0.01219300       0.02508800       0.00000000 
Fe       4.62761000       6.53306000       0.00000000       0.00129500       0.00771900      -0.00000000 
Fe       1.15880000       6.53306000       2.00033000      -0.00800300      -0.18057400       0.00000000 
Fe       3.47301000       4.89980000       2.00033000       0.00226700       0.01069400       0.00000000 
Fe       5.78092000       5.71643000       2.00033000      -0.00192000       0.00454900       0.00000000 
Fe       6.93395000       4.89980000       0.00000000       0.00084900      -0.00375200       0.00000000 
Fe       9.24238000       5.71643000       0.00000000      -0.00343900      -0.00178700       0.00000000 
Fe      11.55057000       6.53306000       0.00000000      -0.00303800      -0.00516600      -0.00000000 
Fe       8.08788000       6.53306000       2.00033000      -0.00319500      -0.00204500       0.00000000 
Fe      10.39666000       4.89980000       2.00033000      -0.00567600      -0.00079800       0.00000000 
Fe      12.70436000       5.71643000       2.00033000      -0.00195900      -0.00003800      -0.00000000 
Fe      13.85819000       4.89980000       0.00000000       0.00195900       0.00003800      -0.00000000 
Fe      16.16589000       5.71643000       0.00000000       0.00567600       0.00079800       0.00000000 
Fe      18.47468000       6.53306000       0.00000000       0.00319500       0.00204500       0.00000000 
Fe      15.01199000       6.53306000       2.00033000       0.00303800       0.00516600      -0.00000000 
Fe      17.32017000       4.89980000       2.00033000       0.00343900       0.00178700       0.00000000 
Fe      19.62860000       5.71643000       2.00033000      -0.00084900       0.00375200       0.00000000 
Fe      20.78163000       4.89980000       0.00000000       0.00192000      -0.00454900      -0.00000000 
Fe      23.08954000       5.71643000       0.00000000      -0.00226700      -0.01069400       0.00000000 
Fe      25.40375000       6.53306000       0.00000000       0.00800300       0.18057400      -0.00000000 
Fe      21.93494000       6.53306000       2.00033000      -0.00129500      -0.00771900      -0.00000000 
Fe      24.24327000       4.89980000       2.00033000      -0.01219300      -0.02508800      -0.00000000 
Fe      26.54845000       5.71643000       2.00033000       0.00406100       0.61431400       0.00000000 
Fe       0.01410000       7.34970000       4.00067000      -0.00406100      -0.61431400      -0.00000000 
Fe       2.31929000       0.81663000       4.00067000       0.01219300       0.02508800       0.00000000 
Fe       4.62761000       1.63327000       4.00067000       0.00129500       0.00771900      -0.00000000 
Fe       1.15880000       1.63327000       6.00100000      -0.00800300      -0.18057400      -0.00000000 
Fe       3.47301000       7.34970000       6.00100000       0.00226700       0.01069400      -0.00000000 
Fe       5.78092000       0.81663000       6.00100000      -0.00192000       0.00454900       0.00000000 
Fe       6.93395000       7.34970000       4.00067000       0.00084900      -0.00375200       0.00000000 
Fe       9.24238000       0.81663000       4.00067000      -0.00343900      -0.00178700      -0.00000000 
Fe      11.55057000       1.63327000       4.00067000      -0.00303800      -0.00516600      -0.00000000 
Fe       8.08788000       1.63327000       6.00100000      -0.00319500      -0.00204500       0.00000000 
Fe      10.39666000       7.34970000       6.00100000      -0.00567600      -0.00079800      -0.00000000 
Fe      12.70436000       0.81663000       6.00100000      -0.00195900      -0.00003800       0.00000000 
Fe      13.85819000       7.34970000       4.00067000       0.00195900       0.00003800       0.00000000 
Fe      16.16589000       0.81663000       4.00067000       0.00567600       0.00079800      -0.00000000 
Fe      18.47468000       1.63327000       4.00067000       0.00319500       0.00204500      -0.00000000 
Fe      15.01199000       1.63327000       6.00100000       0.00303800       0.00516600      -0.00000000 
Fe      17.32017000       7.34970000       6.00100000       0.00343900       0.00178700      -0.00000000 
Fe      19.62860000       0.81663000       6.00100000      -0.00084900       0.00375200       0.00000000 
Fe      20.78163000       7.34970000       4.00067000       0.00192000      -0.00454900       0.00000000 
Fe      23.08954000       0.81663000       4.00067000      -0.00226700      -0.01069400       0.00000000 
Fe      25.40375000       1.63327000       4.00067000       0.00800300       0.18057400      -0.00000000 
Fe      21.93494000       1.63327000       6.00100000      -0.00129500      -0.00771900      -0.00000000 
Fe      24.24327000       7.34970000       6.00100000      -0.01219300      -0.02508800      -0.00000000 
Fe      26.54845000       0.81663000       6.00100000       0.00406100       0.61431400      -0.00000000 
Fe       0.01410000       2.44990000       4.00067000      -0.00406100      -0.61431400      -0.00000000 
Fe       2.31929000       3.26653000       4.00067000       0.01219300       0.02508800      -0.00000000 
Fe       4.62761000       4.08317000       4.00067000       0.00129500       0.00771900       0.00000000 
Fe       1.15880000       4.08317000       6.00100000      -0.00800300      -0.18057400      -0.00000000 
Fe       3.47301000       2.44990000       6.00100000       0.00226700       0.01069400      -0.00000000 
Fe       5.78092000       3.26653000       6.00100000      -0.00192000       0.00454900      -0.00000000 
Fe       6.93395000       2.44990000       4.00067000       0.00084900      -0.00375200       0.00000000 
Fe       9.24238000       3.26653000       4.00067000      -0.00343900      -0.00178700      -0.00000000 
Fe      11.55057000       4.08317000       4.00067000      -0.00303800      -0.00516600      -0.00000000 
Fe       8.08788000       4.08317000       6.00100000      -0.00319500      -0.00204500      -0.00000000 
Fe      10.39666000       2.44990000       6.00100000      -0.00567600      -0.00079800      -0.00000000 
Fe      12.70436000       3.26653000       6.00100000      -0.00195900      -0.00003800       0.00000000 
Fe      13.85819000       2.44990000       4.00067000       0.00195900       0.00003800      -0.00000000 
Fe      16.16589000       3.26653000       4.00067000       0.00567600       0.00079800      -0.00000000 
Fe      18.47468000       4.08317000       4.00067000       0.00319500       0.00204500      -0.00000000 
Fe      15.01199000       4.08317000       6.00100000       0.00303800       0.00516600      -0.00000000 
Fe      17.32017000       2.44990000       6.00100000       0.00343900       0.00178700      -0.00000000 
Fe      19.62860000       3.26653000       6.00100000      -0.00084900       0.00375200      -0.00000000 
Fe      20.78163000       2.44990000       4.00067000       0.00192000      -0.00454900       0.00000000 
Fe      23.08954000       3.26653000       4.00067000      -0.00226700      -0.01069400       0.00000000 
Fe      25.40375000       4.08317000       4.00067000       0.00800300       0.18057400       0.00000000 
Fe      21.93494000       4.08317000       6.00100000      -0.00129500      -0.00771900      -0.00000000 
Fe      24.24327000       2.44990000       6.00100000      -0.01219300      -0.02508800      -0.00000000 
Fe      26.54845000       3.26653000       6.00100000       0.00406100       0.61431400       0.00000000 
Fe       0.01410000       4.89980000       4.00067000      -0.00406100      -0.61431400       0.00000000 
Fe       2.31929000       5.71643000       4.00067000       0.01219300       0.02508800      -0.00000000 
Fe       4.62761000       6.53306000       4.00067000       0.00129500       0.00771900       0.00000000 
Fe       1.15880000       6.53306000       6.00100000      -0.00800300      -0.18057400      -0.00000000 
Fe       3.47301000       4.89980000       6.00100000       0.00226700       0.01069400      -0.00000000 
Fe       5.78092000       5.71643000       6.00100000      -0.00192000       0.00454900       0.00000000 
Fe       6.93395000       4.89980000       4.00067000       0.00084900      -0.00375200      -0.00000000 
Fe       9.24238000       5.71643000       4.00067000      -0.00343900      -0.00178700      -0.00000000 
Fe      11.55057000       6.53306000       4.00067000      -0.00303800      -0.00516600      -0.00000000 
Fe       8.08788000       6.53306000       6.00100000      -0.00319500      -0.00204500       0.00000000 
Fe      10.39666000       4.89980000       6.00100000      -0.00567600      -0.00079800      -0.00000000 
Fe      12.70436000       5.71643000       6.00100000      -0.00195900      -0.00003800      -0.00000000 
Fe      13.85819000       4.89980000       4.00067000       0.00195900       0.00003800      -0.00000000 
Fe      16.16589000       5.71643000       4.00067000       0.00567600       0.00079800      -0.00000000 
Fe      18.47468000       6.53306000       4.00067000       0.00319500       0.00204500       0.00000000 
Fe      15.01199000       6.53306000       6.00100000       0.00303800       0.00516600       0.00000000 
Fe      17.32017000       4.89980000       6.00100000       0.00343900       0.00178700       0.00000000 
Fe      19.62860000       5.71643000       6.00100000      -0.00084900       0.00375200      -0.00000000 
Fe      20.78163000       4.89980000       4.00067000       0.00192000      -0.00454900       0.00000000 
Fe      23.08954000       5.71643000       4.00067000      -0.00226700      -0.01069400       0.00000000 
Fe      25.40375000       6.53306000       4.00067000       0.00800300       0.18057400      -0.00000000 
Fe      21.93494000       6.53306000       6.00100000      -0.00129500      -0.00771900      -0.00000000 
Fe      24.24327000       4.89980000       6.00100000      -0.01219300      -0.02508800       0.00000000 
Fe      26.54845000       5.71643000       6.00100000       0.00406100       0.61431400       0.00000000 
Fe       0.01410000       7.34970000       8.00134000      -0.00406100      -0.61431400       0.00000000 
Fe       2.31929000       0.81663000       8.00134000       0.01219300       0.02508800       0.00000000 
Fe       4.62761000       1.63327000       8.00134000       0.00129500       0.00771900       0.00000000 
Fe       1.15880000       1.63327000      10.00167000      -0.00800300      -0.18057400       0.00000000 
Fe       3.47301000       7.34970000      10.00167000       0.00226700       0.01069400       0.00000000 
Fe       5.78092000       0.81663000      10.00167000      -0.00192000       0.00454900       0.00000000 
Fe       6.93395000       7.34970000       8.00134000       0.00084900      -0.00375200      -0.00000000 
Fe       9.24238000       0.81663000       8.00134000      -0.00343900      -0.00178700      -0.00000000 
Fe      11.55057000       1.63327000       8.00134000      -0.00303800      -0.00516600      -0.00000000 
Fe       8.08788000       1.63327000      10.00167000      -0.00319500      -0.00204500      -0.00000000 
Fe      10.39666000       7.34970000      10.00167000      -0.00567600      -0.00079800      -0.00000000 
Fe      12.70436000       0.81663000      10.00167000      -0.00195900      -0.00003800      -0.00000000 
Fe      13.85819000       7.34970000       8.00134000       0.00195900       0.00003800       0.00000000 
Fe      16.16589000       0.81663000       8.00134000       0.00567600       0.00079800      -0.00000000 
Fe      18.47468000       1.63327000       8.00134000       0.00319500       0.00204500       0.00000000 
Fe      15.01199000       1.63327000      10.00167000       0.00303800       0.00516600       0.00000000 
Fe      17.32017000       7.34970000      10.00167000       0.00343900       0.00178700       0.00000000 
Fe      19.62860000       0.81663000      10.00167000      -0.00084900       0.00375200       0.00000000 
Fe      20.78163000       7.34970000       8.00134000       0.00192000      -0.00454900      -0.00000000 
Fe      23.08954000       0.81663000       8.00134000      -0.00226700      -0.01069400      -0.00000000 
Fe      25.40375000       1.63327000       8.00134000       0.00800300       0.18057400      -0.00000000 
Fe      21.93494000       1.63327000      10.00167000      -0.00129500      -0.00771900       0.00000000 
Fe      24.24327000       7.34970000      10.00167000      -0.01219300      -0.02508800      -0.00000000 
Fe      26.54845000       0.81663000      10.00167000       0.00406100       0.61431400       0.00000000 
Fe       0.01410000       2.44990000       8.00134000      -0.00406100      -0.61431400      -0.00000000 
Fe       2.31929000       3.26653000       8.00134000       0.01219300       0.02508800      -0.00000000 
Fe       4.62761000       4.08317000       8.00134000       0.00129500       0.00771900      -0.00000000 
Fe       1.15880000       4.08317000      10.00167000      -0.00800300      -0.18057400      -0.00000000 
Fe       3.47301000       2.44990000      10.00167000       0.00226700       0.01069400       0.00000000 
Fe       5.78092000       3.26653000      10.00167000      -0.00192000       0.00454900      -0.00000000 
Fe       6.93395000       2.44990000       8.00134000       0.00084900      -0.00375200       0.00000000 
Fe       9.24238000       3.26653000       8.00134000      -0.00343900      -0.00178700      -0.00000000 
Fe      11.55057000       4.08317000       8.00134000      -0.00303800      -0.00516600      -0.00000000 
Fe       8.08788000       4.08317000      10.00167000      -0.00319500      -0.00204500      -0.00000000 
Fe      10.39666000       2.44990000      10.00167000      -0.00567600      -0.00079800      -0.00000000 
Fe      12.70436000       3.26653000      10.00167000      -0.00195900      -0.00003800      -0.00000000 
Fe      13.85819000       2.44990000       8.00134000       0.00195900       0.00003800       0.00000000 
Fe      16.16589000       3.26653000       8.00134000       0.00567600       0.00079800       0.00000000 
Fe      18.47468000       4.08317000       8.00134000       0.00319500       0.00204500       0.00000000 
Fe      15.01199000       4.08317000      10.00167000       0.00303800       0.00516600       0.00000000 
Fe      17.32017000       2.44990000      10.00167000       0.00343900       0.00178700       0.00000000 
Fe      19.62860000       3.26653000      10.00167000      -0.00084900       0.00375200       0.00000000 
Fe      20.78163000       2.44990000       8.00134000       0.00192000      -0.00454900      -0.00000000 
Fe      23.08954000       3.26653000       8.00134000      -0.00226700      -0.01069400      -0.00000000 
Fe      25.40375000       4.08317000       8.00134000       0.00800300       0.18057400      -0.00000000 
Fe      21.93494000       4.08317000      10.00167000      -0.00129500      -0.00771900       0.00000000 
Fe      24.24327000       2.44990000      10.00167000      -0.01219300      -0.02508800      -0.00000000 
Fe      26.54845000       3.26653000      10.00167000       0.00406100       0.61431400       0.00000000 
Fe       0.01410000       4.89980000       8.00134000      -0.00406100      -0.61431400      -0.00000000 
Fe       2.31929000       5.71643000       8.00134000       0.01219300       0.02508800       0.00000000 
Fe       4.62761000       6.53306000       8.00134000       0.00129500       0.00771900       0.00000000 
Fe       1.15880000       6.53306000      10.00167000      -0.00800300      -0.18057400       0.00000000 
Fe       3.47301000       4.89980000      10.00167000       0.00226700       0.01069400       0.00000000 
Fe       5.78092000       5.71643000      10.00167000      -0.00192000       0.00454900       0.00000000 
Fe       6.93395000       4.89980000       8.00134000       0.00084900      -0.00375200      -0.00000000 
Fe       9.24238000       5.71643000       8.00134000      -0.00343900      -0.00178700      -0.00000000 
Fe      11.55057000       6.53306000       8.00134000      -0.00303800      -0.00516600       0.00000000 
Fe       8.08788000       6.53306000      10.00167000      -0.00319500      -0.00204500      -0.00000000 
Fe      10.39666000       4.89980000      10.00167000      -0.00567600      -0.00079800       0.00000000 
Fe      12.70436000       5.71643000      10.00167000      -0.00195900      -0.00003800      -0.00000000 
Fe      13.85819000       4.89980000       8.00134000       0.00195900       0.00003800       0.00000000 
Fe      16.16589000       5.71643000       8.00134000       0.00567600       0.00079800       0.00000000 
Fe      18.47468000       6.53306000       8.00134000       0.00319500       0.00204500      -0.00000000 
Fe      15.01199000       6.53306000      10.00167000       0.00303800       0.00516600      -0.00000000 
Fe      17.32017000       4.89980000      10.00167000       0.00343900       0.00178700       0.00000000 
Fe      19.62860000       5.71643000      10.00167000      -0.00084900       0.00375200       0.00000000 
Fe      20.78163000       4.89980000       8.00134000       0.00192000      -0.00454900      -0.00000000 
Fe      23.08954000       5.71643000       8.00134000      -0.00226700      -0.01069400      -0.00000000 
Fe      25.40375000       6.53306000       8.00134000       0.00800300       0.18057400      -0.00000000 
Fe      21.93494000       6.53306000      10.00167000      -0.00129500      -0.00771900       0.00000000 
Fe      24.24327000       4.89980000      10.00167000      -0.01219300      -0.02508800      -0.00000000 
Fe      26.54845000       5.71643000      10.00167000       0.00406100       0.61431400      -0.00000000 
216
Lattice="27.717446133 0.489985049 0.0 0.0 7.349697794 0.0 0.0 0.0 12.00200624" Properties=species:S:1:pos:R:3:force:R:3 magmom=474.39306 energy=-1775.95750793 stress="-0.0062664814039 0.00628677255006 -0.0 0.00628677255006 0.00176479294685 -0.0 -0.0 -0.0 -0.00724466319712" pbc="T T T"
Fe       0.00000000       0.00000000       0.00000000       0.52067100      -0.96004000       0.00000000 
Fe       2.30979000       0.81663000       0.00000000       0.05067900       0.02249200       0.00000000 
Fe       4.61957000       1.63327000       0.00000000       0.01641200       0.00975500       0.00000000 
Fe       1.15489000       1.63327000       2.00033000       0.09662700      -0.28362500       0.00000000 
Fe       3.46468000       7.34970000       2.00033000       0.03824200       0.01938400       0.00000000 
Fe       5.77447000       0.81663000       2.00033000       0.00595600       0.01008300      -0.00000000 
Fe       6.92936000       7.34970000       0.00000000      -0.00470600      -0.00530200       0.00000000 
Fe       9.23915000       0.81663000       0.00000000      -0.00311700      -0.00326700       0.00000000 
Fe      11.54894000       1.63327000       0.00000000       0.00048100      -0.00711500      -0.00000000 
Fe       8.08426000       1.63327000       2.00033000      -0.01407000      -0.00188800       0.00000000 
Fe      10.39404000       7.34970000       2.00033000      -0.00293500      -0.00019900       0.00000000 
Fe      12.70383000       0.81663000       2.00033000      -0.00177000       0.00167300      -0.00000000 
Fe      13.85872000       7.34970000       0.00000000       0.00177000      -0.00167300       0.00000000 
Fe      16.16851000       0.81663000       0.00000000       0.00293500       0.00019900       0.00000000 
Fe      18.47830000       1.63327000       0.00000000       0.01407000       0.00188800      -0.00000000 
Fe      15.01362000       1.63327000       2.00033000      -0.00048100       0.00711500      -0.00000000 
Fe      17.32340000       7.34970000       2.00033000       0.00311700       0.00326700       0.00000000 
Fe      19.63319000       0.81663000       2.00033000       0.00470600       0.00530200      -0.00000000 
Fe      20.78808000       7.34970000       0.00000000      -0.00595600      -0.01008300       0.00000000 
Fe      23.09787000       0.81663000       0.00000000      -0.03824200      -0.01938400      -0.00000000 
Fe      25.40766000       1.63327000       0.00000000      -0.09662700       0.28362500      -0.00000000 
Fe      21.94298000       1.63327000       2.00033000      -0.01641200      -0.00975500       0.00000000 
Fe      24.25277000       7.34970000       2.00033000      -0.05067900      -0.02249200       0.00000000 
Fe      26.56255000       0.81663000       2.00033000      -0.52067100       0.96004000      -0.00000000 
Fe       0.00000000       2.44990000       0.00000000       0.52067100      -0.96004000       0.00000000 
Fe       2.30979000       3.26653000       0.00000000       0.05067900       0.02249200       0.00000000 
Fe       4.61957000       4.08317000       0.00000000       0.01641200       0.00975500       0.00000000 
Fe       1.15489000       4.08317000       2.00033000       0.09662700      -0.28362500       0.00000000 
Fe       3.46468000       2.44990000       2.00033000       0.03824200       0.01938400      -0.00000000 
Fe       5.77447000       3.26653000       2.00033000       0.00595600       0.01008300      -0.00000000 
Fe       6.92936000       2.44990000       0.00000000      -0.00470600      -0.00530200      -0.00000000 
Fe       9.23915000       3.26653000       0.00000000      -0.00311700      -0.00326700       0.00000000 
Fe      11.54894000       4.08317000       0.00000000       0.00048100      -0.00711500      -0.00000000 
Fe       8.08426000       4.08317000       2.00033000      -0.01407000      -0.00188800       0.00000000 
Fe      10.39404000       2.44990000       2.00033000      -0.00293500      -0.00019900       0.00000000 
Fe      12.70383000       3.26653000       2.00033000      -0.00177000       0.00167300      -0.00000000 
Fe      13.85872000       2.44990000       0.00000000       0.00177000      -0.00167300       0.00000000 
Fe      16.16851000       3.26653000       0.00000000       0.00293500       0.00019900       0.00000000 
Fe      18.47830000       4.08317000       0.00000000       0.01407000       0.00188800       0.00000000 
Fe      15.01362000       4.08317000       2.00033000      -0.00048100       0.00711500      -0.00000000 
Fe      17.32340000       2.44990000       2.00033000       0.00311700       0.00326700       0.00000000 
Fe      19.63319000       3.26653000       2.00033000       0.00470600       0.00530200      -0.00000000 
Fe      20.78808000       2.44990000       0.00000000      -0.00595600      -0.01008300      -0.00000000 
Fe      23.09787000       3.26653000       0.00000000      -0.03824200      -0.01938400      -0.00000000 
Fe      25.40766000       4.08317000       0.00000000      -0.09662700       0.28362500      -0.00000000 
Fe      21.94298000       4.08317000       2.00033000      -0.01641200      -0.00975500      -0.00000000 
Fe      24.25277000       2.44990000       2.00033000      -0.05067900      -0.02249200      -0.00000000 
Fe      26.56255000       3.26653000       2.00033000      -0.52067100       0.96004000      -0.00000000 
Fe       0.00000000       4.89980000       0.00000000       0.52067100      -0.96004000       0.00000000 
Fe       2.30979000       5.71643000       0.00000000       0.05067900       0.02249200       0.00000000 
Fe       4.61957000       6.53306000       0.00000000       0.01641200       0.00975500       0.00000000 
Fe       1.15489000       6.53306000       2.00033000       0.09662700      -0.28362500       0.00000000 
Fe       3.46468000       4.89980000       2.00033000       0.03824200       0.01938400      -0.00000000 
Fe       5.77447000       5.71643000       2.00033000       0.00595600       0.01008300       0.00000000 
Fe       6.92936000       4.89980000       0.00000000      -0.00470600      -0.00530200       0.00000000 
Fe       9.23915000       5.71643000       0.00000000      -0.00311700      -0.00326700      -0.00000000 
Fe      11.54894000       6.53306000       0.00000000       0.00048100      -0.00711500      -0.00000000 
Fe       8.08426000       6.53306000       2.00033000      -0.01407000      -0.00188800       0.00000000 
Fe      10.39404000       4.89980000       2.00033000      -0.00293500      -0.00019900       0.00000000 
Fe      12.70383000       5.71643000       2.00033000      -0.00177000       0.00167300       0.00000000 
Fe      13.85872000       4.89980000       0.00000000       0.00177000      -0.00167300       0.00000000 