250
Lattice="14.14465 0.0 0.0 0.0 14.14465 0.0 0.0 0.0 14.14465" Properties=species:S:1:pos:R:3:forces:R:3 magmom=545.5841673 energy=-2059.13525296 stress="0.000597543359185 -0.0 0.0 -0.0 0.000604820958825 0.0 0.0 0.0 0.000604820958825" pbc="T T T"
Fe       0.10000000       0.00000000       0.00000000      -1.12047200      -0.00000000      -0.00000000 
Fe       1.41447000       1.41447000       1.41447000       0.12041600       0.09978800       0.09978800 
Fe       2.82893000       0.00000000       0.00000000       0.15994300      -0.00000000      -0.00000000 
Fe       4.24339000       1.41447000       1.41447000      -0.00273900       0.00080400       0.00080400 
Fe       5.65786000       0.00000000       0.00000000       0.00007100      -0.00000000      -0.00000000 
Fe       7.07233000       1.41447000       1.41447000      -0.00363400      -0.00076600      -0.00076600 
Fe       8.48679000       0.00000000       0.00000000       0.01306100      -0.00000000      -0.00000000 
Fe       9.90126000       1.41447000       1.41447000       0.00011200      -0.00272000      -0.00272000 
Fe      11.31572000       0.00000000       0.00000000       0.09918100      -0.00000000      -0.00000000 
Fe      12.73018000       1.41447000       1.41447000       0.09888500      -0.07714400      -0.07714400 
Fe       0.00000000       2.82893000       0.00000000      -0.00431700      -0.00161700      -0.00000000 
Fe       1.41447000       4.24339000       1.41447000       0.00221900       0.00231700       0.00325900 
Fe       2.82893000       2.82893000       0.00000000       0.01061700       0.00494800      -0.00000000 
Fe       4.24339000       4.24339000       1.41447000      -0.00226900      -0.00058200      -0.00015600 
Fe       5.65786000       2.82893000       0.00000000      -0.00255200      -0.00247700      -0.00000000 
Fe       7.07233000       4.24339000       1.41447000       0.00078800       0.00267900       0.00085100 
Fe       8.48679000       2.82893000       0.00000000       0.00108900      -0.00005800      -0.00000000 
Fe       9.90126000       4.24339000       1.41447000      -0.00034700      -0.00019400       0.00205900 
Fe      11.31572000       2.82893000       0.00000000       0.01031500      -0.00539100      -0.00000000 
Fe      12.73018000       4.24339000       1.41447000       0.00346100      -0.00190100      -0.00480800 
Fe       0.00000000       5.65786000       0.00000000      -0.00082000      -0.00491400      -0.00000000 
Fe       1.41447000       7.07233000       1.41447000       0.00080800      -0.00000000      -0.00039000 
Fe       2.82893000       5.65786000       0.00000000      -0.00257900      -0.00195500      -0.00000000 
Fe       4.24339000       7.07233000       1.41447000       0.00229100      -0.00000000      -0.00048600 
Fe       5.65786000       5.65786000       0.00000000       0.00113000       0.00152000      -0.00000000 
Fe       7.07233000       7.07233000       1.41447000      -0.00088200      -0.00000000       0.00458000 
Fe       8.48679000       5.65786000       0.00000000       0.00071000       0.00026200      -0.00000000 
Fe       9.90126000       7.07233000       1.41447000      -0.00183400      -0.00000000       0.00162200 
Fe      11.31572000       5.65786000       0.00000000       0.00096200       0.00007500      -0.00000000 
Fe      12.73018000       7.07233000       1.41447000       0.00261900      -0.00000000      -0.00206000 
Fe       0.00000000       8.48679000       0.00000000      -0.00082000       0.00491400      -0.00000000 
Fe       1.41447000       9.90126000       1.41447000       0.00221900      -0.00231700       0.00325900 
Fe       2.82893000       8.48679000       0.00000000      -0.00257900       0.00195500      -0.00000000 
Fe       4.24339000       9.90126000       1.41447000      -0.00226900       0.00058200      -0.00015600 
Fe       5.65786000       8.48679000       0.00000000       0.00113000      -0.00152000      -0.00000000 
Fe       7.07233000       9.90126000       1.41447000       0.00078800      -0.00267900       0.00085100 
Fe       8.48679000       8.48679000       0.00000000       0.00071000      -0.00026200      -0.00000000 
Fe       9.90126000       9.90126000       1.41447000      -0.00034700       0.00019400       0.00205900 
Fe      11.31572000       8.48679000       0.00000000       0.00096200      -0.00007500      -0.00000000 
Fe      12.73018000       9.90126000       1.41447000       0.00346100       0.00190100      -0.00480800 
Fe       0.00000000      11.31572000       0.00000000      -0.00431700       0.00161700      -0.00000000 
Fe       1.41447000      12.73018000       1.41447000       0.12041600      -0.09978800       0.09978800 
Fe       2.82893000      11.31572000       0.00000000       0.01061700      -0.00494800      -0.00000000 
Fe       4.24339000      12.73018000       1.41447000      -0.00273900      -0.00080400       0.00080400 
Fe       5.65786000      11.31572000       0.00000000      -0.00255200       0.00247700      -0.00000000 
Fe       7.07233000      12.73018000       1.41447000      -0.00363400       0.00076600      -0.00076600 
Fe       8.48679000      11.31572000       0.00000000       0.00108900       0.00005800      -0.00000000 
Fe       9.90126000      12.73018000       1.41447000       0.00011200       0.00272000      -0.00272000 
Fe      11.31572000      11.31572000       0.00000000       0.01031500       0.00539100      -0.00000000 
Fe      12.73018000      12.73018000       1.41447000       0.09888500       0.07714400      -0.07714400 
Fe       0.00000000       0.00000000       2.82893000      -0.00431700      -0.00000000      -0.00161700 
Fe       1.41447000       1.41447000       4.24339000       0.00221900       0.00325900       0.00231700 
Fe       2.82893000       0.00000000       2.82893000       0.01061700      -0.00000000       0.00494800 
Fe       4.24339000       1.41447000       4.24339000      -0.00226900      -0.00015600      -0.00058200 
Fe       5.65786000       0.00000000       2.82893000      -0.00255200      -0.00000000      -0.00247700 
Fe       7.07233000       1.41447000       4.24339000       0.00078800       0.00085100       0.00267900 
Fe       8.48679000       0.00000000       2.82893000       0.00108900      -0.00000000      -0.00005800 
Fe       9.90126000       1.41447000       4.24339000      -0.00034700       0.00205900      -0.00019400 
Fe      11.31572000       0.00000000       2.82893000       0.01031500      -0.00000000      -0.00539100 
Fe      12.73018000       1.41447000       4.24339000       0.00346100      -0.00480800      -0.00190100 
Fe       0.00000000       2.82893000       2.82893000      -0.00776400      -0.00113800      -0.00113800 
Fe       1.41447000       4.24339000       4.24339000       0.00103900      -0.00195900      -0.00195900 
Fe       2.82893000       2.82893000       2.82893000      -0.00524100       0.00175600       0.00175600 
Fe       4.24339000       4.24339000       4.24339000      -0.00109800      -0.00500300      -0.00500300 
Fe       5.65786000       2.82893000       2.82893000      -0.00197800       0.00045200       0.00045200 
Fe       7.07233000       4.24339000       4.24339000       0.00169100       0.00022900       0.00022900 
Fe       8.48679000       2.82893000       2.82893000       0.00176800       0.00189200       0.00189200 
Fe       9.90126000       4.24339000       4.24339000       0.00042800       0.00273400       0.00273400 
Fe      11.31572000       2.82893000       2.82893000      -0.00449700      -0.00072200      -0.00072200 
Fe      12.73018000       4.24339000       4.24339000      -0.00141300       0.00027900       0.00027900 
Fe       0.00000000       5.65786000       2.82893000      -0.00064700      -0.00117000      -0.00234600 
Fe       1.41447000       7.07233000       4.24339000       0.00001300      -0.00000000       0.00050400 
Fe       2.82893000       5.65786000       2.82893000      -0.00098500      -0.00193000      -0.00199500 
Fe       4.24339000       7.07233000       4.24339000       0.00150000      -0.00000000      -0.00096100 
Fe       5.65786000       5.65786000       2.82893000      -0.00006800       0.00081000       0.00005100 
Fe       7.07233000       7.07233000       4.24339000       0.00357300      -0.00000000      -0.00334100 
Fe       8.48679000       5.65786000       2.82893000      -0.00037200       0.00031800      -0.00072400 
Fe       9.90126000       7.07233000       4.24339000       0.00055900      -0.00000000       0.00013400 
Fe      11.31572000       5.65786000       2.82893000      -0.00229700      -0.00070900       0.00188500 
Fe      12.73018000       7.07233000       4.24339000      -0.00185800      -0.00000000       0.00200800 
Fe       0.00000000       8.48679000       2.82893000      -0.00064700       0.00117000      -0.00234600 
Fe       1.41447000       9.90126000       4.24339000       0.00103900       0.00195900      -0.00195900 
Fe       2.82893000       8.48679000       2.82893000      -0.00098500       0.00193000      -0.00199500 
Fe       4.24339000       9.90126000       4.24339000      -0.00109800       0.00500300      -0.00500300 
Fe       5.65786000       8.48679000       2.82893000      -0.00006800      -0.00081000       0.00005100 
Fe       7.07233000       9.90126000       4.24339000       0.00169100      -0.00022900       0.00022900 
Fe       8.48679000       8.48679000       2.82893000      -0.00037200      -0.00031800      -0.00072400 
Fe       9.90126000       9.90126000       4.24339000       0.00042800      -0.00273400       0.00273400 
Fe      11.31572000       8.48679000       2.82893000      -0.00229700       0.00070900       0.00188500 
Fe      12.73018000       9.90126000       4.24339000      -0.00141300      -0.00027900       0.00027900 
Fe       0.00000000      11.31572000       2.82893000      -0.00776400       0.00113800      -0.00113800 
Fe       1.41447000      12.73018000       4.24339000       0.00221900      -0.00325900       0.00231700 
Fe       2.82893000      11.31572000       2.82893000      -0.00524100      -0.00175600       0.00175600 
Fe       4.24339000      12.73018000       4.24339000      -0.00226900       0.00015600      -0.00058200 
Fe       5.65786000      11.31572000       2.82893000      -0.00197800      -0.00045200       0.00045200 
Fe       7.07233000      12.73018000       4.24339000       0.00078800      -0.00085100       0.00267900 
Fe       8.48679000      11.31572000       2.82893000       0.00176800      -0.00189200       0.00189200 
Fe       9.90126000      12.73018000       4.24339000      -0.00034700      -0.00205900      -0.00019400 
Fe      11.31572000      11.31572000       2.82893000      -0.00449700       0.00072200      -0.00072200 
Fe      12.73018000      12.73018000       4.24339000       0.00346100       0.00480800      -0.00190100 
Fe       0.00000000       0.00000000       5.65786000      -0.00082000      -0.00000000      -0.00491400 
Fe       1.41447000       1.41447000       7.07233000       0.00080800      -0.00039000      -0.00000000 
Fe       2.82893000       0.00000000       5.65786000      -0.00257900      -0.00000000      -0.00195500 
Fe       4.24339000       1.41447000       7.07233000       0.00229100      -0.00048600      -0.00000000 
Fe       5.65786000       0.00000000       5.65786000       0.00113000      -0.00000000       0.00152000 
Fe       7.07233000       1.41447000       7.07233000      -0.00088200       0.00458000      -0.00000000 
Fe       8.48679000       0.00000000       5.65786000       0.00071000      -0.00000000       0.00026200 
Fe       9.90126000       1.41447000       7.07233000      -0.00183400       0.00162200      -0.00000000 
Fe      11.31572000       0.00000000       5.65786000       0.00096200      -0.00000000       0.00007500 
Fe      12.73018000       1.41447000       7.07233000       0.00261900      -0.00206000      -0.00000000 
Fe       0.00000000       2.82893000       5.65786000      -0.00064700      -0.00234600      -0.00117000 
Fe       1.41447000       4.24339000       7.07233000       0.00001300       0.00050400      -0.00000000 
Fe       2.82893000       2.82893000       5.65786000      -0.00098500      -0.00199500      -0.00193000 
Fe       4.24339000       4.24339000       7.07233000       0.00150000      -0.00096100      -0.00000000 
Fe       5.65786000       2.82893000       5.65786000      -0.00006800       0.00005100       0.00081000 
Fe       7.07233000       4.24339000       7.07233000       0.00357300      -0.00334100      -0.00000000 
Fe       8.48679000       2.82893000       5.65786000      -0.00037200      -0.00072400       0.00031800 
Fe       9.90126000       4.24339000       7.07233000       0.00055900       0.00013400      -0.00000000 
Fe      11.31572000       2.82893000       5.65786000      -0.00229700       0.00188500      -0.00070900 
Fe      12.73018000       4.24339000       7.07233000      -0.00185800       0.00200800      -0.00000000 
Fe       0.00000000       5.65786000       5.65786000      -0.00263100      -0.00001800      -0.00001800 
Fe       1.41447000       7.07233000       7.07233000       0.00507000      -0.00000000      -0.00000000 
Fe       2.82893000       5.65786000       5.65786000      -0.00001000       0.00026800       0.00026800 
Fe       4.24339000       7.07233000       7.07233000       0.00231300      -0.00000000      -0.00000000 
Fe       5.65786000       5.65786000       5.65786000      -0.00156100       0.00282200       0.00282200 
Fe       7.07233000       7.07233000       7.07233000       0.00439900      -0.00000000      -0.00000000 
Fe       8.48679000       5.65786000       5.65786000      -0.00308200      -0.00223300      -0.00223300 
Fe       9.90126000       7.07233000       7.07233000       0.00762800      -0.00000000      -0.00000000 
Fe      11.31572000       5.65786000       5.65786000      -0.00051900      -0.00045100      -0.00045100 
Fe      12.73018000       7.07233000       7.07233000      -0.00509200      -0.00000000      -0.00000000 
Fe       0.00000000       8.48679000       5.65786000      -0.00263100       0.00001800      -0.00001800 
Fe       1.41447000       9.90126000       7.07233000       0.00001300      -0.00050400      -0.00000000 
Fe       2.82893000       8.48679000       5.65786000      -0.00001000      -0.00026800       0.00026800 
Fe       4.24339000       9.90126000       7.07233000       0.00150000       0.00096100      -0.00000000 
Fe       5.65786000       8.48679000       5.65786000      -0.00156100      -0.00282200       0.00282200 
Fe       7.07233000       9.90126000       7.07233000       0.00357300       0.00334100      -0.00000000 
Fe       8.48679000       8.48679000       5.65786000      -0.00308200       0.00223300      -0.00223300 
Fe       9.90126000       9.90126000       7.07233000       0.00055900      -0.00013400      -0.00000000 
Fe      11.31572000       8.48679000       5.65786000      -0.00051900       0.00045100      -0.00045100 
Fe      12.73018000       9.90126000       7.07233000      -0.00185800      -0.00200800      -0.00000000 
Fe       0.00000000      11.31572000       5.65786000      -0.00064700       0.00234600      -0.00117000 
Fe       1.41447000      12.73018000       7.07233000       0.00080800       0.00039000      -0.00000000 
Fe       2.82893000      11.31572000       5.65786000      -0.00098500       0.00199500      -0.00193000 
Fe       4.24339000      12.73018000       7.07233000       0.00229100       0.00048600      -0.00000000 
Fe       5.65786000      11.31572000       5.65786000      -0.00006800      -0.00005100       0.00081000 
Fe       7.07233000      12.73018000       7.07233000      -0.00088200      -0.00458000      -0.00000000 
Fe       8.48679000      11.31572000       5.65786000      -0.00037200       0.00072400       0.00031800 
Fe       9.90126000      12.73018000       7.07233000      -0.00183400      -0.00162200      -0.00000000 
Fe      11.31572000      11.31572000       5.65786000      -0.00229700      -0.00188500      -0.00070900 
Fe      12.73018000      12.73018000       7.07233000       0.00261900       0.00206000      -0.00000000 
Fe       0.00000000       0.00000000       8.48679000      -0.00082000      -0.00000000       0.00491400 
Fe       1.41447000       1.41447000       9.90126000       0.00221900       0.00325900      -0.00231700 
Fe       2.82893000       0.00000000       8.48679000      -0.00257900      -0.00000000       0.00195500 
Fe       4.24339000       1.41447000       9.90126000      -0.00226900      -0.00015600       0.00058200 
Fe       5.65786000       0.00000000       8.48679000       0.00113000      -0.00000000      -0.00152000 
Fe       7.07233000       1.41447000       9.90126000       0.00078800       0.00085100      -0.00267900 
Fe       8.48679000       0.00000000       8.48679000       0.00071000      -0.00000000      -0.00026200 
Fe       9.90126000       1.41447000       9.90126000      -0.00034700       0.00205900       0.00019400 
Fe      11.31572000       0.00000000       8.48679000       0.00096200      -0.00000000      -0.00007500 
Fe      12.73018000       1.41447000       9.90126000       0.00346100      -0.00480800       0.00190100 
Fe       0.00000000       2.82893000       8.48679000      -0.00064700      -0.00234600       0.00117000 
Fe       1.41447000       4.24339000       9.90126000       0.00103900      -0.00195900       0.00195900 
Fe       2.82893000       2.82893000       8.48679000      -0.00098500      -0.00199500       0.00193000 
Fe       4.24339000       4.24339000       9.90126000      -0.00109800      -0.00500300       0.00500300 
Fe       5.65786000       2.82893000       8.48679000      -0.00006800       0.00005100      -0.00081000 
Fe       7.07233000       4.24339000       9.90126000       0.00169100       0.00022900      -0.00022900 
Fe       8.48679000       2.82893000       8.48679000      -0.00037200      -0.00072400      -0.00031800 
Fe       9.90126000       4.24339000       9.90126000       0.00042800       0.00273400      -0.00273400 
Fe      11.31572000       2.82893000       8.48679000      -0.00229700       0.00188500       0.00070900 
Fe      12.73018000       4.24339000       9.90126000      -0.00141300       0.00027900      -0.00027900 
Fe       0.00000000       5.65786000       8.48679000      -0.00263100      -0.00001800       0.00001800 
Fe       1.41447000       7.07233000       9.90126000       0.00001300      -0.00000000      -0.00050400 
Fe       2.82893000       5.65786000       8.48679000      -0.00001000       0.00026800      -0.00026800 
Fe       4.24339000       7.07233000       9.90126000       0.00150000      -0.00000000       0.00096100 
Fe       5.65786000       5.65786000       8.48679000      -0.00156100       0.00282200      -0.00282200 
Fe       7.07233000       7.07233000       9.90126000       0.00357300      -0.00000000       0.00334100 
Fe       8.48679000       5.65786000       8.48679000      -0.00308200      -0.00223300       0.00223300 
Fe       9.90126000       7.07233000       9.90126000       0.00055900      -0.00000000      -0.00013400 
Fe      11.31572000       5.65786000       8.48679000      -0.00051900      -0.00045100       0.00045100 
Fe      12.73018000       7.07233000       9.90126000      -0.00185800      -0.00000000      -0.00200800 
Fe       0.00000000       8.48679000       8.48679000      -0.00263100       0.00001800       0.00001800 
Fe       1.41447000       9.90126000       9.90126000       0.00103900       0.00195900       0.00195900 
Fe       2.82893000       8.48679000       8.48679000      -0.00001000      -0.00026800      -0.00026800 
Fe       4.24339000       9.90126000       9.90126000      -0.00109800       0.00500300       0.00500300 
Fe       5.65786000       8.48679000       8.48679000      -0.00156100      -0.00282200      -0.00282200 
Fe       7.07233000       9.90126000       9.90126000       0.00169100      -0.00022900      -0.00022900 
Fe       8.48679000       8.48679000       8.48679000      -0.00308200       0.00223300       0.00223300 
Fe       9.90126000       9.90126000       9.90126000       0.00042800      -0.00273400      -0.00273400 
Fe      11.31572000       8.48679000       8.48679000      -0.00051900       0.00045100       0.00045100 
Fe      12.73018000       9.90126000       9.90126000      -0.00141300      -0.00027900      -0.00027900 
Fe       0.00000000      11.31572000       8.48679000      -0.00064700       0.00234600       0.00117000 
Fe       1.41447000      12.73018000       9.90126000       0.00221900      -0.00325900      -0.00231700 
Fe       2.82893000      11.31572000       8.48679000      -0.00098500       0.00199500       0.00193000 
Fe       4.24339000      12.73018000       9.90126000      -0.00226900       0.00015600       0.00058200 
Fe       5.65786000      11.31572000       8.48679000      -0.00006800      -0.00005100      -0.00081000 
Fe       7.07233000      12.73018000       9.90126000       0.00078800      -0.00085100      -0.00267900 
Fe       8.48679000      11.31572000       8.48679000      -0.00037200       0.00072400      -0.00031800 
Fe       9.90126000      12.73018000       9.90126000      -0.00034700      -0.00205900       0.00019400 
Fe      11.31572000      11.31572000       8.48679000      -0.00229700      -0.00188500       0.00070900 
Fe      12.73018000      12.73018000       9.90126000       0.00346100       0.00480800       0.00190100 
Fe       0.00000000       0.00000000      11.31572000      -0.00431700      -0.00000000       0.00161700 
Fe       1.41447000       1.41447000      12.73018000       0.12041600       0.09978800      -0.09978800 
Fe       2.82893000       0.00000000      11.31572000       0.01061700      -0.00000000      -0.00494800 
Fe       4.24339000       1.41447000      12.73018000      -0.00273900       0.00080400      -0.00080400 
Fe       5.65786000       0.00000000      11.31572000      -0.00255200      -0.00000000       0.00247700 
Fe       7.07233000       1.41447000      12.73018000      -0.00363400      -0.00076600       0.00076600 
Fe       8.48679000       0.00000000      11.31572000       0.00108900      -0.00000000       0.00005800 
Fe       9.90126000       1.41447000      12.73018000       0.00011200      -0.00272000       0.00272000 
Fe      11.31572000       0.00000000      11.31572000       0.01031500      -0.00000000       0.00539100 
Fe      12.73018000       1.41447000      12.73018000       0.09888500      -0.07714400       0.07714400 
Fe       0.00000000       2.82893000      11.31572000      -0.00776400      -0.00113800       0.00113800 
Fe       1.41447000       4.24339000      12.73018000       0.00221900       0.00231700      -0.00325900 
Fe       2.82893000       2.82893000      11.31572000      -0.00524100       0.00175600      -0.00175600 
Fe       4.24339000       4.24339000      12.73018000      -0.00226900      -0.00058200       0.00015600 
Fe       5.65786000       2.82893000      11.31572000      -0.00197800       0.00045200      -0.00045200 
Fe       7.07233000       4.24339000      12.73018000       0.00078800       0.00267900      -0.00085100 
Fe       8.48679000       2.82893000      11.31572000       0.00176800       0.00189200      -0.00189200 
Fe       9.90126000       4.24339000      12.73018000      -0.00034700      -0.00019400      -0.00205900 
Fe      11.31572000       2.82893000      11.31572000      -0.00449700      -0.00072200       0.00072200 
Fe      12.73018000       4.24339000      12.73018000       0.00346100      -0.00190100       0.00480800 
Fe       0.00000000       5.65786000      11.31572000      -0.00064700      -0.00117000       0.00234600 
Fe       1.41447000       7.07233000      12.73018000       0.00080800      -0.00000000       0.00039000 
Fe       2.82893000       5.65786000      11.31572000      -0.00098500      -0.00193000       0.00199500 
Fe       4.24339000       7.07233000      12.73018000       0.00229100      -0.00000000       0.00048600 
Fe       5.65786000       5.65786000      11.31572000      -0.00006800       0.00081000      -0.00005100 
Fe       7.07233000       7.07233000      12.73018000      -0.00088200      -0.00000000      -0.00458000 
Fe       8.48679000       5.65786000      11.31572000      -0.00037200       0.00031800       0.00072400 
Fe       9.90126000       7.07233000      12.73018000      -0.00183400      -0.00000000      -0.00162200 
Fe      11.31572000       5.65786000      11.31572000      -0.00229700      -0.00070900      -0.00188500 
Fe      12.73018000       7.07233000      12.73018000       0.00261900      -0.00000000       0.00206000 
Fe       0.00000000       8.48679000      11.31572000      -0.00064700       0.00117000       0.00234600 
Fe       1.41447000       9.90126000      12.73018000       0.00221900      -0.00231700      -0.00325900 
Fe       2.82893000       8.48679000      11.31572000      -0.00098500       0.00193000       0.00199500 
Fe       4.24339000       9.90126000      12.73018000      -0.00226900       0.00058200       0.00015600 
Fe       5.65786000       8.48679000      11.31572000      -0.00006800      -0.00081000      -0.00005100 
Fe       7.07233000       9.90126000      12.73018000       0.00078800      -0.00267900      -0.00085100 
Fe       8.48679000       8.48679000      11.31572000      -0.00037200      -0.00031800       0.00072400 
Fe       9.90126000       9.90126000      12.73018000      -0.00034700       0.00019400      -0.00205900 
Fe      11.31572000       8.48679000      11.31572000      -0.00229700       0.00070900      -0.00188500 
Fe      12.73018000       9.90126000      12.73018000       0.00346100       0.00190100       0.00480800 
Fe       0.00000000      11.31572000      11.31572000      -0.00776400       0.00113800       0.00113800 
Fe       1.41447000      12.73018000      12.73018000       0.12041600      -0.09978800      -0.09978800 
Fe       2.82893000      11.31572000      11.31572000      -0.00524100      -0.00175600      -0.00175600 
Fe       4.24339000      12.73018000      12.73018000      -0.00273900      -0.00080400      -0.00080400 
Fe       5.65786000      11.31572000      11.31572000      -0.00197800      -0.00045200      -0.00045200 
Fe       7.07233000      12.73018000      12.73018000      -0.00363400       0.00076600       0.00076600 
Fe       8.48679000      11.31572000      11.31572000       0.00176800      -0.00189200      -0.00189200 
Fe       9.90126000      12.73018000      12.73018000       0.00011200       0.00272000       0.00272000 
Fe      11.31572000      11.31572000      11.31572000      -0.00449700       0.00072200       0.00072200 
Fe      12.73018000      12.73018000      12.73018000       0.09888500       0.07714400       0.07714400 
250
Lattice="14.14465 0.0 0.0 0.0 14.14465 0.0 0.0 0.0 14.14465" Properties=species:S:1:pos:R:3:forces:R:3 magmom=545.5840628 energy=-2059.13506571 stress="0.000604827200335 -0.0 -0.0 -0.0 0.000604827200335 -0.0 -0.0 -0.0 0.000598947698738" pbc="T T T"
Fe       0.00000000       0.00000000       0.00000000      -0.00111500      -0.00000000      -0.00081300 
Fe       1.41447000       1.41447000       1.41447000       0.00000000       0.00009000       0.00301200 
Fe       2.82893000       0.00000000       0.00000000       0.00111500      -0.00000000      -0.00081300 
Fe       4.24339000       1.41447000       1.41447000      -0.00188300       0.00364600       0.00291600 
Fe       5.65786000       0.00000000       0.00000000       0.00631600      -0.00000000      -0.00430000 
Fe       7.07233000       1.41447000       1.41447000      -0.09883500       0.09883500       0.11941300 
Fe       8.48679000       0.00000000       0.10000000       0.00000000      -0.00000000      -1.12590900 
Fe       9.90126000       1.41447000       1.41447000       0.09883500       0.09883500       0.11941300 
Fe      11.31572000       0.00000000       0.00000000      -0.00631600      -0.00000000      -0.00430000 
Fe      12.73018000       1.41447000       1.41447000       0.00188300       0.00364600       0.00291600 
Fe       0.00000000       2.82893000       0.00000000      -0.00066200       0.00082700      -0.00063000 
Fe       1.41447000       4.24339000       1.41447000       0.00000000      -0.00136900      -0.00062100 
Fe       2.82893000       2.82893000       0.00000000       0.00066200       0.00082700      -0.00063000 
Fe       4.24339000       4.24339000       1.41447000       0.00127900      -0.00127900       0.00041100 
Fe       5.65786000       2.82893000       0.00000000       0.00176200      -0.00176200      -0.00774800 
Fe       7.07233000       4.24339000       1.41447000      -0.00364600       0.00188300       0.00291600 
Fe       8.48679000       2.82893000       0.00000000       0.00000000      -0.00631600      -0.00430000 
Fe       9.90126000       4.24339000       1.41447000       0.00364600       0.00188300       0.00291600 
Fe      11.31572000       2.82893000       0.00000000      -0.00176200      -0.00176200      -0.00774800 
Fe      12.73018000       4.24339000       1.41447000      -0.00127900      -0.00127900       0.00041100 
Fe       0.00000000       5.65786000       0.00000000      -0.00147900      -0.00147900      -0.00260300 
Fe       1.41447000       7.07233000       1.41447000       0.00000000      -0.00000000      -0.00002400 
Fe       2.82893000       5.65786000       0.00000000       0.00147900      -0.00147900      -0.00260300 
Fe       4.24339000       7.07233000       1.41447000       0.00136900      -0.00000000      -0.00062100 
Fe       5.65786000       5.65786000       0.00000000      -0.00082700      -0.00066200      -0.00063000 
Fe       7.07233000       7.07233000       1.41447000      -0.00009000      -0.00000000       0.00301200 
Fe       8.48679000       5.65786000       0.00000000       0.00000000      -0.00111500      -0.00081300 
Fe       9.90126000       7.07233000       1.41447000       0.00009000      -0.00000000       0.00301200 