135
Lattice="-14.19703759 -14.19703759 28.23691241 6.3388987 -19.1214713 14.8256887 1.414465 1.414465 1.414465" Properties=species:S:1:pos:R:3:forces:R:3 magmom=298.4028367 energy=-1098.09309912 stress="-0.0248903394809 0.00873483598395 0.00895616613906 0.00873483598395 -0.0265350395506 0.00767074605911 0.00895616613906 0.00767074605911 -0.0273934467837" pbc="T T T"
Fe     -12.96929000     -15.75019000      29.27324000       0.00924200       0.19534200       0.19133900 
Fe      -8.65461000     -22.68947000      36.55342000      -0.28050400      -0.70955000       1.08524100 
Fe      -8.87875000     -20.06152000      33.58192000      -0.65398700      -0.33779800       2.42125900 
Fe     -10.20037000     -21.41291000      35.08872000      -0.40648400      -0.17216600       0.16448900 
Fe     -10.10097000     -18.68668000      29.63446000      -0.58961700       0.40701600      -0.86428600 
Fe     -10.42118000     -18.58738000      32.23513000       0.95357200      -0.73781200       0.22981600 
Fe     -10.22930000     -15.76301000      26.49529000      -0.10034700      -0.18865500      -0.67199700 
Fe     -10.04668000     -15.77392000      29.31963000      -0.95313900      -0.31823800       0.66496600 
Fe     -11.65820000     -17.23149000      30.71655000       0.09702500       0.78155400      -0.18871800 
Fe      -9.10130000     -11.73514000      24.73369000       0.91668800      -0.18025200       0.14645200 
Fe     -10.29728000     -12.91519000      26.35621000       0.60276200      -1.16167700      -0.28554000 
Fe     -11.47309000     -14.27400000      27.92586000      -1.02386200      -0.14380300       0.27855100 
Fe      -6.87269000     -29.38565000      41.06684000       0.46285000      -0.53233600       0.39134900 
Fe      -6.94961000     -26.61976000      38.19604000       0.72649500      -0.77483800       0.01077500 
Fe      -8.23600000     -28.08520000      39.58882000      -0.24141600      -0.43724500       0.39375500 
Fe      -6.99609000     -23.97431000      32.59543000      -0.00000600      -0.57436200      -0.53622400 
Fe      -7.09019000     -23.99957000      35.20683000      -0.16443000       0.08636600       0.79893400 
Fe      -8.31098000     -25.21273000      36.91029000      -0.75606800      -0.54666400      -0.76579700 
Fe      -7.00719000     -21.14082000      29.77458000      -0.53059400      -0.77476300       1.53119600 
Fe      -7.11481000     -21.32796000      32.60997000       0.02059900       0.11550600      -0.66400900 
Fe      -8.81748000     -22.87023000      33.81054000       0.78513500       1.43509300      -0.78303200 
Fe      -6.59384000     -17.67071000      27.54527000       0.82458900      -1.36514100       1.84512900 
Fe      -7.43642000     -18.84096000      29.78114000      -0.49182100       1.55967000      -0.94546400 
Fe      -8.77767000     -20.06400000      31.24389000       0.47758600       0.30660500      -2.05017300 
Fe      -6.38471000     -14.79515000      24.96415000       0.44821600       0.80121500      -0.69098900 
Fe      -7.64688000     -16.09111000      26.35945000      -1.64475500       0.95324000      -0.02314600 
Fe      -8.96557000     -17.42873000      27.82092000      -0.00101000      -0.46556200       0.76551000 
Fe      -6.22264000     -11.82470000      22.02368000       0.28212700       0.35339500      -0.74309700 
Fe      -7.60922000     -13.23497000      23.36422000      -1.15224800       0.23999900       0.80327300 
Fe      -8.99646000     -14.60621000      24.83897000      -0.50884100       0.71764500       0.13677200 
Fe      -7.20467000     -10.33232000      17.74963000      -0.90819700       0.40099800      -0.12983300 
Fe      -7.35627000     -10.27248000      20.49937000      -0.52082300      -0.53022500       0.67037200 
Fe      -9.05343000     -11.80099000      21.94888000       0.75975500       0.14873100       0.02279400 
Fe      -4.10779000     -29.41947000      38.16126000       0.72290600      -0.64580600      -0.37067300 
Fe      -5.46184000     -30.80326000      39.60746000       0.26661200      -0.13389200       0.43561600 
Fe     -12.97507000     -13.01017000      26.34285000      -1.19044200       0.29374400       0.72229600 
Fe      -4.07094000     -26.92506000      35.34652000      -0.28554000       1.29253600      -0.05332800 
Fe      -5.61775000     -28.24727000      36.68213000       0.14982600       1.41958400       0.05716500 
Fe      -6.79971000     -29.54457000      38.21271000      -1.36346400       0.97207400      -0.16882700 
Fe      -4.26031000     -24.01400000      32.48241000       0.39083900       0.01239100       0.65793600 
Fe      -5.56881000     -25.42952000      34.09080000       0.66747500       0.18166900      -1.50171800 
Fe      -7.03822000     -26.62642000      35.33181000       0.34096500      -1.35546600       0.60703900 
Fe      -3.80454000     -20.75477000      27.27555000       0.28093600      -0.98142500       1.27320900 
Fe      -4.11632000     -21.02150000      29.99727000       0.83451000       0.19557700      -1.52240100 
Fe      -5.65884000     -22.55663000      31.13917000       0.08742300      -0.11932700       0.88902600 
Fe      -3.62318000     -17.80618000      24.95127000      -0.86582800       0.71490700      -0.48313300 
Fe      -5.03195000     -19.23325000      26.32542000      -1.04163300       0.79258800      -1.23728700 
Fe      -5.33411000     -19.35132000      28.85893000       0.69751600       0.32200200      -0.85060700 
Fe      -3.66120000     -14.85128000      22.11573000       0.04943800      -0.13957100      -0.22980300 
Fe      -5.12355000     -16.18808000      23.55571000       0.68589600      -0.96771000      -0.12949100 
Fe      -5.15502000     -16.32461000      26.45409000       2.11481700       0.05871600      -1.71057700 
Fe      -3.24844000     -12.03863000      19.26048000      -0.59864400       1.38395900      -0.99938600 
Fe      -4.84809000     -13.35160000      20.56283000      -0.62824300       0.27365300       0.98979800 
Fe      -6.42242000     -14.68102000      22.04883000       0.95167300      -0.79579700      -0.09389500 
Fe      -3.00476000      -8.79962000      16.38146000      -0.91379900      -0.61380000       0.90136200 
Fe      -4.51345000     -10.32507000      17.73996000       0.42653800      -0.50150300       0.13034200 
Fe      -6.04624000     -11.81256000      19.16587000       0.34399100      -0.29789000       0.00099200 
Fe      -4.56844000      -7.33523000      12.46099000       0.53774500       0.19666600      -0.89844700 
Fe      -4.48161000      -7.22548000      15.20790000      -0.02126000      -0.95373600      -0.34018500 
Fe      -5.86335000      -8.75306000      16.43933000       0.08689900      -0.44800700      -0.16478100 
Fe      -7.40656000      -7.54037000      17.74125000      -0.00299700       0.46837000       0.19065800 
Fe      -8.76350000      -8.93848000      19.07775000      -0.37751100      -0.29051100       0.22654800 
Fe     -10.18711000     -10.29765000      20.60889000      -0.44036300      -0.71586800      -0.67274700 
Fe      -1.22066000     -23.77699000      30.08345000       0.50349200       0.81105300      -1.89374500 
Fe      -2.67315000     -25.29035000      31.17511000      -0.44103300      -0.09156500       1.03717600 
Fe      -2.73103000     -25.41571000      33.90294000       0.12231000       0.36144800       0.31364300 
Fe      -0.91451000     -20.74597000      27.22087000       0.25502800      -0.82025200       0.73167100 
Fe      -2.48986000     -22.23968000      28.56295000      -0.02369700      -0.45653300       0.16700800 
Fe      -4.19538000     -23.84123000      29.78754000       0.59158200      -0.37666300       0.59093500 
Fe      -1.00201000     -17.86760000      21.82022000      -0.57089600      -0.26324700       0.68590600 
Fe      -2.34720000     -19.23102000      23.35771000       0.52585700       0.10425300      -0.63559100 
Fe      -2.21835000     -19.28680000      26.09779000      -0.80415000       0.38965700      -0.14769700 
Fe      -1.08804000     -15.10370000      19.02530000       0.92684700       0.53876800      -0.89447700 
Fe      -2.45744000     -16.45193000      20.37230000      -0.13175800      -0.53886000       1.44761100 
Fe      -2.29342000     -16.43085000      23.43874000      -0.58487700       0.64944500      -0.09818200 
Fe      -0.26911000     -11.73356000      16.41970000      -0.67831600      -0.13037900       0.43786800 
Fe      -1.93795000     -13.35750000      17.68552000      -0.46043900      -0.25580700       0.13718300 
Fe      -3.56363000     -14.78576000      19.30240000       0.14282000      -0.51768800      -0.80826500 
Fe      -1.51081000     -10.22532000      12.55797000      -0.43793300      -0.10105600       0.19847400 
Fe      -1.69765000     -10.39917000      15.06403000      -0.04776200       0.48249600       0.31850500 
Fe      -3.24292000     -11.94704000      16.32031000      -0.15397100       0.66394700       0.48554100 
Fe      -1.47712000      -7.45788000       9.84868000      -0.42648700       0.23043300      -0.20288000 
Fe      -1.81363000      -7.46935000      12.48619000       0.98252900       0.71862600      -0.41814400 
Fe      -3.10847000      -8.87134000      13.68825000      -0.19661900       0.28889100       0.71140800 
Fe      -1.60967000      -4.72685000       6.82988000      -0.24421100       1.49110600      -0.09637500 
Fe      -1.56597000      -4.55665000       9.64075000      -0.00134400      -0.86777100       1.20835400 
Fe      -3.05953000      -5.97474000      10.98029000       0.08997300      -0.26027900       0.50506900 
Fe      -4.50182000      -4.55038000      12.33159000      -0.00312500       0.06175700       0.45814300 
Fe       0.38533000     -25.02701000      28.62110000      -0.22379700       0.20889000      -0.23431300 
Fe      -1.04692000     -26.43462000      29.90673000       0.06606200      -0.85948400       0.38697300 
Fe       1.91581000     -20.81434000      24.47033000       0.39434400      -0.15495200       0.47324600 
Fe       0.51413000     -22.25782000      25.77428000      -0.60184100       0.21858900       0.44403600 
Fe      -1.09335000     -23.74072000      27.19131000       0.25729500       0.41799300      -0.06065900 
Fe       1.68423000     -17.82523000      21.77656000       1.09522100      -0.94367400      -0.08519400 
Fe       0.55213000     -19.32122000      23.27973000      -0.76081300       0.69797400      -0.67131800 
Fe      -0.91444000     -20.63655000      24.53026000       0.51817500      -0.97886500       0.36813700 
Fe       1.73216000     -15.29179000      15.86706000       0.14675700       0.14895300       0.51918100 
Fe       1.75286000     -15.12096000      18.90216000      -0.32631800      -0.03936800       0.03462700 
Fe       0.14029000     -16.57712000      20.28004000       1.47824100       0.39883400       0.11172300 
Fe       1.54198000     -12.90405000      12.72433000       0.82152400       0.86650400      -0.43556900 
Fe       1.76034000     -12.61951000      15.77917000       0.41789500      -0.25189600      -0.31248700 
Fe       0.50606000     -13.73908000      17.42451000      -0.39712400      -0.52664100       0.54355800 
Fe       1.35860000      -9.88330000      10.00976000       0.73527400      -0.76288700      -0.72061300 
Fe       1.56381000     -10.03617000      12.74490000      -0.00969200      -0.62069500      -0.00647500 
Fe       0.05224000     -11.59831000      13.90811000      -0.14899500       0.45090100       0.46052900 
Fe       1.20133000      -7.25122000       6.82733000      -0.32968700      -0.42264000       0.40852600 
Fe       1.35025000      -7.20061000       9.69608000      -0.25946200      -0.72897700       0.99558800 
Fe       0.06048000      -8.75121000      11.52520000      -0.52608100       1.28806700      -1.71456600 
Fe       1.13846000      -4.39972000       3.85411000      -1.40214600       0.02415700       0.77011200 
Fe       0.95455000      -4.55059000       6.75741000       1.53391500      -0.18744400      -0.63015300 
Fe      -0.20619000      -5.94291000       8.39736000       0.28648000      -0.47236400      -0.56641600 
Fe       1.08227000      -1.51383000       3.81938000       1.36146000      -1.06643500       0.70306500 
Fe      -0.33961000      -3.13459000       5.30947000       0.62659500       0.32300600       0.09835600 
Fe      -1.52371000      -1.66747000       6.95279000      -0.23291500       0.20412700      -0.28695400 
Fe      -2.82671000      -3.22149000       8.29933000      -1.39081700       1.16936000      -0.52575300 
Fe      -4.36589000      -4.52463000       9.61048000      -0.39606000      -0.08343300      -0.05089000 
Fe       4.68821000     -17.77088000      18.95007000      -0.19688100      -0.82766800       0.25706100 
Fe       3.44570000     -19.32123000      20.45081000      -0.80559100       0.38555200      -0.35992400 
Fe       1.87119000     -20.72286000      21.83139000       0.79326000      -0.10052300      -0.88081200 
Fe       4.47402000     -15.26449000      15.91427000       1.04895200      -0.21715500      -0.11055600 
Fe       3.13149000     -16.54665000      17.49086000      -0.21527500       0.12251400       0.04872100 
Fe       1.63842000     -17.92271000      18.91237000       0.76769000      -0.35191800       0.25529400 
Fe      -9.73624000     -26.76500000      38.26608000      -0.03494700       0.02227200      -0.56749800 
Fe       4.45297000     -12.67957000      12.75215000       0.45303700       0.03314900       0.28578400 
Fe       3.25081000     -13.99296000      14.37426000      -0.97234800      -0.00102800      -0.10791600 
Fe       4.34880000      -9.83497000       9.98543000      -0.34076700       0.04988000       0.06981600 
Fe       2.99096000     -11.31937000      11.30792000      -0.42177800       0.11174700       0.60277000 
Fe       2.68872000      -8.71697000       8.45008000       0.36133700       1.19607900      -0.74890600 
Fe       2.36837000      -5.97313000       5.33298000       0.59266500       0.88893400      -0.19643800 
Fe       6.13137000     -19.24992000      17.44565000      -0.29158900       0.93249000      -0.92073200 
Fe      -1.46865000      -1.49944000       3.97234000      -1.68595400      -0.37910700       0.93638400 
Fe       6.09509000     -16.59590000      14.43230000      -0.41809200       0.17999600       0.19069700 
Fe       4.56682000     -17.83902000      16.10299000       0.56488300      -0.30330600      -0.57271900 
Fe       4.55585000     -15.38320000      12.99470000       0.15906400       0.50622400      -0.64765600 
Fe       7.46788000     -17.72235000      16.08444000       0.63024800      -0.84692900      -0.65317900 
135
Lattice="-14.19703759 -14.19703759 28.23691241 6.3388987 -19.1214713 14.8256887 1.414465 1.414465 1.414465" Properties=species:S:1:pos:R:3:forces:R:3 magmom=298.6691528 energy=-1097.95065653 stress="-0.0227328931949 0.0103003313029 0.00986061074347 0.0103003313029 -0.0308834802341 0.00726177741515 0.00986061074347 0.00726177741515 -0.0262201991058" pbc="T T T"
Fe     -13.06396000     -15.63867000      29.51097000       0.52675400      -0.70629000      -0.81693700 
Fe      -8.61826000     -22.73947000      36.56873000      -0.28688000      -0.72150800       0.36225300 
Fe      -8.88479000     -20.18071000      33.77218000       0.29964500       1.11170800      -1.02183000 
Fe     -10.30424000     -21.67144000      35.03331000       0.14063800       1.46853500      -0.07231900 
Fe      -8.99675000     -17.23604000      30.87482000       0.86445700       0.44127000      -0.30357100 
Fe     -10.20112000     -18.69693000      32.16687000      -0.63145400      -0.41233400       0.64774300 
Fe      -9.07836000     -14.56268000      27.97016000       1.56120000       0.68074900      -1.25828000 
Fe     -10.29336000     -15.73851000      29.43080000      -0.79152700      -0.70545700       0.74634400 
Fe     -11.65781000     -17.18930000      30.93812000      -0.58800500       0.47569500      -0.87304200 
Fe     -10.15704000     -12.82581000      23.46873000      -0.23136500      -1.36679900       0.00693800 
Fe     -10.35981000     -12.99928000      26.50595000       1.37736200      -0.02043700      -0.98018400 
Fe     -11.62989000     -14.39711000      27.87436000      -0.85951500       0.08849000       0.71501200 
Fe      -6.64544000     -29.53381000      41.20024000      -0.65453100       1.51435900      -0.58038100 
Fe      -6.99262000     -26.79342000      38.11657000       0.73091600      -0.51674200      -0.49308900 
Fe      -8.26997000     -28.24857000      39.65797000       0.45322100       0.34692400      -0.53814500 
Fe      -5.76751000     -22.74880000      33.73536000       0.06970000       0.89324700       0.19493000 
Fe      -7.09850000     -24.05393000      35.22125000      -0.41643400      -0.20525200      -0.46887700 
Fe      -8.59023000     -25.64124000      36.50007000       0.57738100       1.25941700       0.11036100 
Fe      -7.15040000     -21.31778000      29.73387000      -0.02608300       0.42842800       0.22492800 
Fe      -7.30624000     -21.28697000      32.36837000       0.52131300      -0.61213100      -0.09977900 
Fe      -8.62039000     -22.71473000      33.69867000       0.06230200      -1.21193300       0.39346600 
Fe      -6.71008000     -17.90624000      27.42687000       0.57932600      -0.22305800      -0.08737800 
Fe      -7.36669000     -18.49044000      29.58541000       0.07241200      -0.68042800       0.32492000 
Fe      -8.85746000     -20.04078000      30.82786000       0.19109800      -0.17425200       0.47840100 
Fe      -6.32061000     -14.58263000      24.85297000      -0.64825000       0.11681800      -0.12111300 
Fe      -7.78178000     -16.03447000      26.36964000      -0.58302100       0.88299000      -0.02262700 
Fe      -8.96930000     -17.31154000      28.03451000      -0.50578100       0.02245800      -0.20019500 
Fe      -6.03440000     -11.88255000      22.02554000       0.11358800       1.00858300      -0.95417600 
Fe      -7.52437000     -13.08772000      23.35020000      -0.35276600      -0.30612900       0.87476600 
Fe      -8.99845000     -14.46866000      24.91869000      -0.40566900       0.14378700       0.28391200 
Fe      -6.12273000      -8.92455000      19.09911000       0.36876000       0.22023400       0.20774300 
Fe      -7.43121000     -10.32134000      20.44674000       0.07459800      -0.17797900       0.13328300 
Fe      -8.69306000     -11.57815000      21.89205000      -1.12485500      -0.55484300       0.15276200 
Fe      -3.98885000     -29.43287000      38.08005000       0.47073800       0.34712800       0.26105500 
Fe     -11.54455000     -11.60401000      24.92110000      -0.45104300      -0.21982600      -0.11085000 
Fe      -6.64799000     -32.04341000      41.29977000      -0.25639700      -0.79315600       0.03905300 
Fe      -4.02748000     -26.49081000      35.19903000      -0.09007200      -1.82048800       0.29928400 
Fe      -5.24279000     -27.99469000      36.71504000      -1.58959600      -0.03985200      -0.19971900 
Fe      -6.84888000     -29.54027000      38.11856000       0.29139000       0.39085700       0.14424300 
Fe      -4.00797000     -23.90209000      32.55406000      -0.21578100      -0.65797500      -0.24235600 
Fe      -5.66980000     -25.45570000      33.67548000       0.18852600       1.06168300       0.48030700 
Fe      -5.56703000     -25.37591000      36.53330000      -0.33276400      -0.22073200       0.91983500 
Fe      -3.91264000     -20.84604000      27.42169000      -0.21061500      -0.41686100       0.09775900 
Fe      -3.98572000     -21.10253000      29.95020000       0.39906800      -0.49469000       0.44511000 
Fe      -5.51749000     -22.62022000      31.12530000      -0.60315600       0.24295000       0.46532700 
Fe      -3.86822000     -17.85222000      24.71274000      -1.04358000       0.22244200       1.15762900 
Fe      -5.38757000     -19.37446000      26.01914000       0.08883600       0.74710700       0.23616200 
Fe      -5.11771000     -19.38073000      28.98842000      -1.03707700       0.94053900      -1.11538900 
Fe      -3.60246000     -14.87362000      21.87924000       0.54806600      -0.69623700       0.66902800 
Fe      -5.07225000     -16.20330000      23.36476000      -0.04339600      -0.29000900       0.57006500 
Fe      -5.24535000     -16.01909000      26.24625000       1.42879100      -1.38247900      -0.08647900 
Fe      -3.28489000     -11.79962000      19.16522000      -1.14530900       0.66443200      -0.06298100 
Fe      -4.71152000     -13.33244000      20.63979000      -0.99631700       0.54502600      -0.95157900 
Fe      -6.24477000     -14.77461000      22.03931000      -0.07925600       0.62815900      -0.58096200 
Fe      -3.17238000      -8.96862000      16.42692000       0.09912900       0.75654600       0.17355000 
Fe      -4.65358000     -10.26380000      17.78491000       0.71640300      -1.06118500      -0.18899500 
Fe      -6.04152000     -11.72954000      19.07689000      -0.21153900      -0.63559900       0.84520700 
Fe      -4.43038000      -7.41689000      12.34910000       0.08140100      -0.23065700      -0.04706700 
Fe      -4.55148000      -7.50242000      14.94085000       0.05971300      -0.38204900       1.78755500 
Fe      -6.00157000      -9.00546000      16.36839000      -0.34702800       1.01814500      -0.52284100 
Fe      -7.42851000      -7.48888000      17.72162000      -0.02864700      -0.56666700      -0.26538000 
Fe      -2.62660000     -28.05249000      33.89357000       0.55618900      -0.24866500      -0.19767200 
Fe      -2.71178000     -28.10761000      36.48969000       0.86517900       0.25312200       0.96829800 
Fe      -0.97846000     -23.84340000      29.78456000      -0.36061100      -0.16894300       0.87660600 
Fe      -2.56743000     -25.30675000      31.15876000       0.53353400       0.25515900      -0.15078000 
Fe      -3.94335000     -26.75478000      32.49196000      -0.25911800       1.06131400      -0.50802700 
Fe      -1.19132000     -20.88264000      27.42786000       1.17480900      -0.27429200      -0.73583200 
Fe      -2.53287000     -22.55005000      28.61242000       0.08021200       0.74999200      -0.34257700 
Fe      -3.98915000     -23.94555000      29.85328000       0.25140900      -0.10596800      -0.29599200 
Fe      -1.00749000     -17.94380000      21.82495000      -0.42706700      -0.34573800       1.27325400 
Fe      -2.58444000     -19.34300000      23.45780000       1.17175500      -0.30906900      -1.16935600 
Fe      -2.56879000     -19.36297000      26.24338000       0.64132200      -0.13583700      -1.57208500 
Fe      -0.98793000     -15.12166000      19.03967000       0.06992100       0.02993700      -0.36367500 
Fe      -2.26432000     -16.46429000      20.55637000      -0.90832400       0.20079100      -0.16095000 
Fe      -2.50627000     -16.47587000      23.47710000       1.34804800       0.37703000      -1.39982800 
Fe      -0.37358000     -11.90588000      16.53202000      -0.02681400       0.68023400      -0.38471200 
Fe      -2.39347000     -13.48410000      17.57848000       2.02721500      -1.30092200      -0.13961800 
Fe      -2.27368000     -13.59070000      20.29221000       0.51999500      -0.38064100       1.24076300 
Fe      -1.54012000     -10.17970000      12.50609000       0.33742500      -0.12959100       0.55628700 
Fe      -1.62229000     -10.20943000      15.21091000       0.28935200       0.03643100      -0.76273600 
Fe      -3.01969000     -11.72469000      16.34885000      -1.50080900       0.73422600       0.94933700 
Fe      -1.56064000      -7.32670000       9.58821000      -0.05635800      -0.78701700       1.13046100 
Fe      -1.38009000      -7.37666000      12.60704000      -0.97787700       0.65161900      -1.23143900 
Fe      -3.01092000      -8.74560000      13.82616000       0.29106000      -0.79729100      -0.41040300 
Fe      -1.59087000      -4.40131000       6.89712000      -0.37626500      -0.21889900      -0.84546100 
Fe      -1.55227000      -4.61047000       9.68591000      -0.91494700       0.81613100      -0.59285300 
Fe      -3.05468000      -6.00338000      11.11857000       0.73178600       0.09786000      -0.76519800 
Fe      -4.47884000      -4.54496000      12.42604000       0.57380700      -0.67490000      -0.25457700 
Fe      -5.85003000      -6.14145000      13.70528000      -0.64673200       0.93067300      -0.63592900 
Fe      -7.39912000      -7.51665000      14.95676000       0.16483300      -0.36508100       0.31710400 
Fe       1.89422000     -20.69224000      24.45482000      -0.43496500      -0.75473500       0.47619500 
Fe       0.48039000     -22.31106000      25.90312000      -0.29722400       1.12183100      -0.82891000 
Fe      -0.87457000     -23.71225000      27.16101000      -1.06218300      -0.12152100       0.51442900 
Fe       1.86345000     -18.00681000      21.83328000      -0.54724400       0.93925400      -0.80327900 
Fe       0.37877000     -19.40009000      23.11806000      -0.41927500       0.29043000       0.78034600 
Fe      -1.06279000     -20.83529000      24.57343000       0.01536900      -0.05644400       0.42036400 
Fe       1.68795000     -15.36125000      16.11425000       0.06454600       0.23601200      -1.29651100 
Fe       1.58241000     -15.35727000      18.93128000       0.44026500       1.80845900      -0.76950700 
Fe       0.47480000     -16.54694000      20.58229000      -0.70381300       0.02064700      -0.42269700 
Fe       1.74034000     -12.63604000      12.91182000      -0.39306800      -0.43703400      -0.52684500 
Fe       1.81582000     -12.52249000      15.84379000      -0.03219800      -0.64813100       0.19604800 
Fe       0.12054000     -14.00455000      17.11161000      -0.21208600      -0.56164900       1.01240400 
Fe       1.42054000     -10.15043000       9.91694000       0.35758700      -0.17573800      -0.28611600 
Fe       1.37078000     -10.04289000      12.68249000       0.55940100      -0.65562500       0.08248400 
Fe      -0.06588000     -11.58017000      14.04064000      -0.08843900       0.58845500      -0.23348800 
Fe       2.40166000      -6.10745000       8.08988000       0.51677900       0.90096900       0.10905800 
Fe       1.33823000      -7.47797000       9.90331000      -0.63251400       1.58497200      -1.14901400 
Fe      -0.07307000      -8.74276000      11.11284000      -0.42926500      -0.22566600       0.96864900 
Fe       2.42104000      -3.23802000       5.21355000       0.25715200       1.05795600       0.75741900 
Fe       1.15452000      -4.58559000       6.71865000      -0.63273900       0.28042800       0.20833800 
Fe      -0.33482000      -6.05188000       8.08663000       1.00168300       0.11994400       0.39451600 
Fe       1.06973000      -1.45600000       3.99060000       0.34841100      -0.56806800       0.12769700 
Fe      -0.18212000      -3.00033000       5.36941000      -0.63754000      -0.26409400       0.02341800 
Fe       4.69700000     -20.69652000      21.54530000      -0.56783600      -0.82168700       0.90872700 
Fe       3.17146000     -22.20345000      23.00011000       0.86309700      -0.07015000       0.21540500 
Fe      -4.47415000      -4.62648000       9.58842000       0.12598100       0.51964200      -0.02347900 
Fe       4.63112000     -17.97652000      18.75708000      -0.56531700       0.83811500       0.08596500 
Fe       3.11376000     -19.33832000      20.14354000       0.53395200       0.42049100       0.29927800 
Fe       1.86356000     -20.69835000      21.59145000       0.17794200      -1.06188500       0.73208700 
Fe       4.59755000     -15.12182000      15.82186000      -0.30070500      -1.19504700       0.85081300 
Fe       3.14913000     -16.59890000      17.38193000       0.56129600      -0.17989200       0.17318600 
Fe       1.73989000     -17.79848000      18.91943000       0.64207500      -1.90579500      -0.03468600 
Fe      -9.75911000     -26.85100000      38.04825000      -0.25742300      -0.96497000       0.85742800 
Fe       4.59439000     -12.60288000      12.82246000      -0.50094900      -0.45052600       0.23056000 
Fe       2.98599000     -14.13793000      14.24542000       0.45882100       1.21984700       0.23505400 
Fe       4.22822000     -10.05109000       9.87847000       0.08615800       0.85584600      -0.81244900 
Fe       3.08367000     -11.45470000      11.42750000      -0.74796200       1.18543900      -0.48340300 
Fe       2.58431000      -8.57114000       8.34928000       0.81886500      -2.08617300       0.19646700 
Fe     -11.65862000     -20.08066000      33.50692000      -0.33101500      -0.88027700       0.76823900 
Fe       6.09929000     -19.20354000      17.36491000      -0.46115400       0.02475600       0.09636500 
Fe       4.47109000     -20.73409000      18.79379000       1.39335200       0.25260600      -0.53424000 
Fe       6.04644000     -16.46142000      14.41868000       0.04091500      -0.95465000       0.32987300 
Fe       4.65362000     -17.86619000      15.92805000       0.02867000      -0.18930500      -0.31411100 
Fe       4.52110000     -15.32220000      12.82719000       0.46900300      -0.05988100       0.25079900 
Fe      -6.59712000     -32.04568000      44.07745000      -0.84835600       0.22650900       0.64230300 
135
Lattice="-14.19703759 -14.19703759 28.23691241 6.3388987 -19.1214713 14.8256887 1.414465 1.414465 1.414465" Properties=species:S:1:pos:R:3:forces:R:3 magmom=298.6677694 energy=-1097.9059445 stress="-0.0217028694269 0.00970469784551 0.00885197038571 0.00970469784551 -0.0301899986381 0.00732859277034 0.00885197038571 0.00732859277034 -0.0261952517938" pbc="T T T"
Fe     -13.28213000     -15.88880000      29.42446000       0.97585400      -0.42453700      -0.57552400 
Fe      -8.56642000     -22.95008000      36.41067000      -0.16361900       0.42621800       0.41371500 